VARIABLES="w (rad/s)"
"abs(F   1   1)" "angle(F   1   1)"
"abs(F   1   2)" "angle(F   1   2)"
"abs(F   1   3)" "angle(F   1   3)"
"abs(F   1   4)" "angle(F   1   4)"
"abs(F   1   5)" "angle(F   1   5)"
"abs(F   1   6)" "angle(F   1   6)"
Zone t="Diffraction force - beta =   0.000 deg",I=    95,F=POINT
  0.3000000E+00  0.3001803E+06 -0.1560492E+01  0.2252561E-01  0.2058682E+01  0.7467194E+06 -0.2886017E+01  0.1245758E+00 -0.9420849E-01  0.1226530E+06 -0.1373476E+01  0.2005074E+00 -0.1689488E+01
  0.3500000E+00  0.3688203E+06 -0.1552378E+01  0.1392184E+00 -0.1204944E+01  0.9801105E+06 -0.2855290E+01  0.2841797E+00  0.0000000E+00  0.5851378E+05  0.5169687E+00  0.1689344E+00  0.3098681E+00
  0.4000000E+00  0.4461587E+06 -0.1538404E+01  0.3913339E-01  0.1401545E+01  0.1224199E+07 -0.2817491E+01  0.7062519E+00 -0.2981900E+01  0.3110086E+06  0.1229736E+01  0.1738900E+00  0.5478839E+00
  0.4500000E+00  0.5316114E+06 -0.1515363E+01  0.5478238E-01 -0.2148293E+01  0.1459957E+07 -0.2773424E+01  0.1507643E+01 -0.1968874E+00  0.7281200E+06  0.1290927E+01  0.3723528E+00  0.9359502E+00
  0.5000000E+00  0.6127013E+06 -0.1480688E+01  0.1269696E+00  0.2239681E+01  0.1653984E+07 -0.2731187E+01  0.1151729E+01 -0.4340659E+00  0.1331458E+07  0.1297985E+01  0.4403288E+00 -0.1201513E+01
  0.5500000E+00  0.6828188E+06 -0.1434220E+01  0.2431295E+00  0.2017828E+01  0.1808410E+07 -0.2689487E+01  0.2793515E+00 -0.1402199E+01  0.2204806E+07  0.1308771E+01  0.2645913E+00 -0.1941879E+01
  0.6000000E+00  0.7186467E+06 -0.1378706E+01  0.3255319E+00  0.1333457E+01  0.1905722E+07 -0.2652291E+01  0.2309160E+01 -0.2352606E+01  0.3390038E+07  0.1334759E+01  0.3275148E+00  0.9484671E+00
  0.6500000E+00  0.7015118E+06 -0.1320691E+01  0.6321133E-01 -0.5805041E+00  0.1941240E+07 -0.2623100E+01  0.8930396E+00  0.2990107E+01  0.4802270E+07  0.1373220E+01  0.2687939E+00 -0.3081610E+01
  0.7000000E+00  0.6170001E+06 -0.1272229E+01  0.7852188E-01  0.2085218E+01  0.1922026E+07 -0.2601028E+01  0.2131257E+00 -0.4656968E+00  0.6487632E+07  0.1430396E+01  0.8577539E+00 -0.1832205E+01
  0.7500000E+00  0.4607234E+06 -0.1268291E+01  0.3912120E-01  0.9048271E+00  0.1840473E+07 -0.2589792E+01  0.2263372E+00 -0.1176669E+01  0.8134862E+07  0.1491542E+01  0.9633505E-01  0.2366947E+01
  0.8000000E+00  0.2467375E+06 -0.1448522E+01  0.1445379E+00 -0.1755107E+01  0.1715441E+07 -0.2592638E+01  0.6817526E+00  0.2283020E+00  0.9777218E+07  0.1558905E+01  0.3439704E+01  0.1622775E+01
  0.8500000E+00  0.1439320E+06 -0.2976532E+01  0.1375015E+00 -0.6481175E+00  0.1554747E+07 -0.2613713E+01  0.1057952E+01  0.3544492E+00  0.1106754E+08  0.1622389E+01  0.1300190E+01  0.2934696E+01
  0.9000000E+00  0.4195660E+06  0.2627323E+01  0.2988111E+00  0.1981803E+01  0.1391363E+07 -0.2658160E+01  0.1379084E+01  0.3120095E+00  0.1200557E+08  0.1682276E+01  0.3605831E+00 -0.1971421E+01
  0.9500000E+00  0.7612117E+06  0.2528912E+01  0.1101450E+00 -0.2990292E+01  0.1236568E+07 -0.2710532E+01  0.2175281E+01 -0.1514206E+00  0.1248791E+08  0.1734670E+01  0.2907763E+00  0.2586197E+01
  0.9999999E+00  0.1122707E+07  0.2505214E+01  0.5632404E-01 -0.1492695E+01  0.1081409E+07 -0.2755145E+01  0.1422594E+01 -0.2576153E+01  0.1234799E+08  0.1776844E+01  0.4137347E+01  0.9633356E-01
  0.1050000E+01  0.1494978E+07  0.2503902E+01  0.5139725E-01 -0.2463884E+01  0.9112225E+06 -0.2783945E+01  0.8368014E+00 -0.1321997E+01  0.1175817E+08  0.1805997E+01  0.3203364E+01 -0.4118169E+00
  0.1100000E+01  0.1871143E+07  0.2527391E+01  0.1943948E-01 -0.1129617E+01  0.7210144E+06 -0.2811078E+01  0.1028876E+01  0.2809487E+01  0.1073521E+08  0.1811597E+01  0.4019207E+01 -0.1409246E+01
  0.1150000E+01  0.2202772E+07  0.2587696E+01  0.4606436E-01 -0.3686959E+00  0.5248298E+06 -0.2851727E+01  0.4475814E+00  0.2875906E+00  0.9485982E+07  0.1784828E+01  0.6196990E+01  0.1405525E+01
  0.1200000E+01  0.2384147E+07  0.2678510E+01  0.6164345E-01  0.5594389E+00  0.3382342E+06 -0.2943239E+01  0.1944268E+00  0.2861046E+00  0.8349340E+07  0.1741569E+01  0.6449689E+01  0.1824240E+01
  0.1250000E+01  0.2347760E+07  0.2774203E+01  0.4907166E-02  0.1471128E+01  0.1807977E+06  0.3078601E+01  0.1432390E+00 -0.3028849E+00  0.7243205E+07  0.1708540E+01  0.2468949E+01  0.5600249E+00
  0.1300000E+01  0.2110196E+07  0.2854983E+01  0.1501862E-01 -0.2801849E+01  0.9329115E+05  0.2269584E+01  0.9662002E-01 -0.2134619E+01  0.6023954E+07  0.1691075E+01  0.7574304E+00 -0.4826764E+00
  0.1350000E+01  0.1730534E+07  0.2917057E+01  0.5856936E-01  0.1832204E+01  0.1178453E+06  0.7945284E+00  0.1326995E+00  0.1250755E+01  0.4693060E+07  0.1687511E+01  0.4984584E+00  0.1454947E+01
  0.1400000E+01  0.1258320E+07  0.2966260E+01  0.2147878E-01 -0.7224388E+00  0.1649235E+06  0.9962870E+00  0.6016184E-01 -0.1333199E+01  0.3340320E+07  0.1686456E+01  0.9597424E+00 -0.3445982E+00
  0.1450000E+01  0.7396191E+06  0.3014803E+01  0.1262060E-01  0.2567083E+00  0.1833383E+06  0.8369752E+00  0.2385470E+00  0.6631526E+00  0.2059302E+07  0.1674646E+01  0.6461723E+00  0.3096238E+01
  0.1500000E+01  0.1743758E+06  0.3056385E+01  0.2679909E-01 -0.2250918E+00  0.1806150E+06  0.7181239E+00  0.1878891E+00 -0.3125999E+01  0.1006352E+07  0.1608464E+01  0.2318668E+00 -0.5298555E+00
  0.1550000E+01  0.2923064E+06 -0.1373237E+00  0.4150391E-02  0.1570796E+01  0.1633885E+06  0.6150673E+00  0.1349944E+00  0.6784127E+00  0.1781856E+06  0.1349140E+01  0.4852769E+00  0.1760595E+01
  0.1600000E+01  0.7007452E+06 -0.9530777E-01  0.4432094E-02  0.2745742E+01  0.1360529E+06  0.5204185E+00  0.1696391E+00  0.2814626E+00  0.4405204E+06 -0.1274473E+01  0.3668721E+00  0.2608249E+01
  0.1650000E+01  0.9924881E+06 -0.7695454E-01  0.6717196E-02 -0.2808348E+01  0.9962600E+05  0.3918094E+00  0.1274223E+00 -0.1341237E-01  0.8131138E+06 -0.1318614E+01  0.4321055E+00  0.2652610E+00
  0.1700000E+01  0.1143685E+07 -0.6945963E-01  0.1151609E-02 -0.2129396E+01  0.7099835E+05  0.3094343E+00  0.1491068E+00  0.6990359E+00  0.9816996E+06 -0.1310296E+01  0.5804759E+00 -0.6805212E+00
  0.1750000E+01  0.1151321E+07 -0.6775250E-01  0.3908157E-02 -0.1823351E+01  0.3833718E+05  0.5307296E-01  0.4302490E-01 -0.3090501E+01  0.9813077E+06 -0.1303325E+01  0.1186514E+01  0.2684018E+01
  0.1800000E+01  0.1019911E+07 -0.6145845E-01  0.3204200E-02 -0.2437099E+01  0.1610665E+05 -0.6101286E+00  0.1688987E-01 -0.3069255E+01  0.8653202E+06 -0.1263397E+01  0.8834753E+00  0.2593158E+01
  0.1850000E+01  0.6522809E+06  0.8323336E-01  0.1858358E-01  0.1742424E+01  0.1623539E+05 -0.1971738E+01  0.2937434E-01  0.2945012E+01  0.5814579E+06 -0.1023903E+01  0.1097260E+01 -0.2008823E+00
  0.1900000E+01  0.4670979E+06 -0.1516133E+00  0.8030705E-02 -0.2800614E+01  0.2460359E+05 -0.2445435E+01  0.2273726E-01  0.2068965E+01  0.4557738E+06 -0.1328146E+01  0.5157036E+00  0.2548863E+01
  0.1950000E+01  0.9474209E+05 -0.1017596E+00  0.1084160E-01  0.2196281E+01  0.2810062E+05 -0.2645410E+01  0.3304139E-01  0.2387064E+00  0.2254529E+06 -0.1439206E+01  0.7444968E-01  0.1649580E+01
  0.2000000E+01  0.2670961E+06  0.2980961E+01  0.6434217E-02 -0.2389739E+01  0.2635152E+05 -0.2863311E+01  0.1407678E-01 -0.2759476E+01  0.1072849E+06 -0.2754057E+01  0.9180759E-01  0.7452837E-01
  0.2050000E+01  0.5691581E+06  0.2991166E+01  0.3974321E-02 -0.1385448E+01  0.2684109E+05 -0.2658638E+01  0.1391002E-01 -0.2996283E+01  0.2490457E+06  0.2772511E+01  0.8403333E+00 -0.3093346E+01
  0.2100000E+01  0.7639029E+06  0.3008386E+01  0.3452670E-02 -0.1428899E+01  0.1438199E+05 -0.2932413E+01  0.2114360E-01 -0.3018947E+00  0.3943372E+06  0.2720757E+01  0.4295993E+00 -0.2072035E+00
  0.2150000E+01  0.8056088E+06  0.3051790E+01  0.2441406E-03  0.1570796E+01  0.5809316E+04 -0.3131858E+01  0.1768001E-01  0.3051714E+01  0.4798696E+06  0.2794052E+01  0.5760515E+00 -0.1471715E+00
  0.2200000E+01  0.5115318E+06 -0.3004710E+01  0.5221284E-02 -0.1761171E+01  0.2714225E+04  0.6724176E+00  0.6639660E-02 -0.1898361E+01  0.4468100E+06 -0.2930687E+01  0.8407694E+00 -0.2542476E+01
  0.2250000E+01  0.4683392E+06  0.2975813E+01  0.2106849E-02  0.2516923E+01  0.7684960E+04  0.2490031E+00  0.9413585E-02 -0.2123726E+01  0.2962058E+06  0.2696721E+01  0.4072781E+00 -0.1395234E+00
  0.2300000E+01  0.1478367E+06  0.3037487E+01  0.5636424E-02 -0.8673834E-01  0.1060268E+05  0.1091961E+00  0.8821441E-02 -0.2214832E+00  0.1141247E+06  0.2621458E+01  0.1978481E+00  0.2467237E+01
  0.2350000E+01  0.1694849E+06 -0.7726277E-01  0.1719375E-02  0.2590519E+01  0.1522049E+05 -0.4773011E+00  0.1736598E-01 -0.2594704E+00  0.1240511E+06  0.1052207E+00  0.4809994E+00  0.1878891E+00
  0.2400000E+01  0.4199352E+06 -0.7168913E-01  0.0000000E+00  0.0000000E+00  0.9552533E+04  0.3828467E+00  0.1642416E-01 -0.1248159E+00  0.3340667E+06 -0.4505453E-01  0.2669273E+00 -0.4941030E-01
  0.2450000E+01  0.5372011E+06 -0.3456308E-01  0.2575076E-02  0.2119346E+01  0.4328135E+04  0.9932640E-01  0.4234254E-02 -0.2678348E+01  0.4878681E+06 -0.8760004E-02  0.2427249E+00  0.2011801E-01
  0.2500000E+01  0.4356862E+06  0.1133656E+00  0.2677211E-02 -0.1993650E+01  0.8268581E+03 -0.3078840E+01  0.6129857E-02  0.2335071E+01  0.5387082E+06  0.2226612E+00  0.2372897E+00 -0.8437695E+00
  0.2550000E+01  0.4253977E+06 -0.2886640E+00  0.3974321E-02 -0.7419473E+00  0.5338952E+04  0.3089689E+01  0.9385396E-02 -0.1587055E+01  0.3277243E+06 -0.2506968E+00  0.4116330E+00  0.4716050E+00
  0.2600000E+01  0.1802901E+06 -0.1832839E+00  0.1968325E-02 -0.5191461E+00  0.8226849E+04  0.2992361E+01  0.3065489E-02  0.2638422E+01  0.1706191E+06 -0.1563545E+00  0.1035309E+00  0.1894784E+01
  0.2650000E+01  0.8677119E+05  0.2988827E+01  0.1125433E-02 -0.8621700E+00  0.1477044E+05  0.2662060E+01  0.1527099E-02  0.3997869E-01  0.8941148E+05 -0.3139181E+01  0.3132482E+00  0.3025986E+01
  0.2700000E+01  0.3001304E+06  0.3023525E+01  0.6103516E-03  0.2214298E+01  0.7499585E+04 -0.2634373E+01  0.6484267E-02  0.9004655E+00  0.3313136E+06  0.3136656E+01  0.1424585E+00 -0.1433262E+01
  0.2750000E+01  0.3815653E+06  0.3084660E+01  0.3452670E-03  0.2356194E+01  0.2340578E+04 -0.3077213E+01  0.4658831E-02  0.6716719E+00  0.4799582E+06 -0.3055682E+01  0.4287112E+00  0.2586132E+01
  0.2800000E+01  0.2446860E+06  0.2138219E+01  0.2100177E-02 -0.6202495E+00  0.2282771E+04 -0.7092384E-01  0.1660967E-02 -0.1164698E+01  0.2095918E+06 -0.2558750E+01  0.8185024E+00  0.1908252E+01
  0.2850000E+01  0.2961219E+06  0.2860342E+01  0.1174431E-02  0.1999574E+01  0.6985629E+04 -0.1729019E+00  0.5889833E-02 -0.3016916E+01  0.3059181E+06  0.2966112E+01  0.6903441E-01  0.1872415E+01
  0.2900000E+01  0.5317039E+05  0.2943719E+01  0.2549634E-02 -0.8362018E+00  0.1125538E+05 -0.3587561E+00  0.2374544E-02  0.2752733E+01  0.6291125E+05  0.3057090E+01  0.6419367E-01  0.2302196E+00
  0.2950000E+01  0.1605331E+06 -0.1427348E+00  0.1348311E-02 -0.1480136E+01  0.1279358E+05  0.4533241E+00  0.1222007E-01 -0.2055227E+00  0.2095407E+06  0.2096836E-01  0.2291116E+00 -0.2112678E+01
  0.3000000E+01  0.2576146E+06 -0.1386621E+00  0.1907776E-02 -0.1283232E+00  0.4220252E+04  0.1722017E+00  0.7381217E-03 -0.5191461E+00  0.3795358E+06  0.1146279E+00  0.2270676E+00 -0.3074882E+01
  0.3050000E+01  0.1229778E+06 -0.7263836E+00  0.3051758E-03 -0.9272952E+00  0.9185090E+03  0.3133332E+01  0.1105394E-02 -0.3030936E+01  0.2863710E+06  0.5506806E+00  0.1044403E+00  0.1215035E+01
  0.3100000E+01  0.2796257E+06 -0.4035041E+00  0.1203801E-02 -0.2102520E+01  0.5749995E+04  0.2910110E+01  0.5642225E-02  0.3448431E+00  0.2982435E+06 -0.2488008E+00  0.3173828E-01  0.1819506E+01
  0.3150000E+01  0.6094710E+05 -0.2840000E+00  0.1814706E-02 -0.3430239E+00  0.1164587E+05  0.2620163E+01  0.7835177E-02  0.2119094E+00  0.7741570E+05 -0.9991936E-01  0.1446005E-01  0.1774814E+01
  0.3200000E+01  0.1194157E+06  0.2892566E+01  0.4094363E-03  0.2034444E+01  0.1400788E+05 -0.2626607E+01  0.8670430E-02 -0.2816156E-01  0.1700714E+06 -0.3140787E+01  0.4074150E-01 -0.7853982E+00
  0.3250000E+01  0.1940857E+06  0.2902654E+01  0.7720405E-03  0.1892547E+01  0.3558866E+04 -0.2955172E+01  0.4354454E-02  0.2520783E+01  0.3244048E+06 -0.3017679E+01  0.2119174E+00 -0.3023811E+01
  0.3300000E+01  0.2851188E+06  0.1854614E+01  0.1423572E-02 -0.2111216E+01  0.1851086E+04 -0.1188466E+00  0.1894891E-02  0.1516415E+01  0.1147048E+06  0.2553116E+01  0.2063352E+00 -0.8046427E+00
  0.3350000E+01  0.1961631E+06  0.2676516E+01  0.1125433E-02  0.1352127E+01  0.7560984E+04 -0.2411992E+00  0.1408548E-01 -0.2666802E+01  0.2333138E+06  0.2888835E+01  0.8247474E-01  0.3442187E+00
  0.3400000E+01  0.1451932E+04 -0.3766454E+00  0.1544081E-02  0.3217506E+00  0.1703329E+05 -0.3022455E+00  0.8332486E-02 -0.2448261E+01  0.2034420E+04 -0.6423949E-01  0.8608337E-02  0.2824326E+01
  0.3450000E+01  0.1314021E+06 -0.3915127E+00  0.8262321E-03  0.3067654E+01  0.7623556E+04  0.3274599E+00  0.2470416E-02  0.2045493E+01  0.2061942E+06  0.3297426E-01  0.3478661E+00 -0.2954520E+01
  0.3500000E+01  0.1080457E+06 -0.9008341E+00  0.2460406E-03  0.1446441E+01  0.1320013E+04  0.5836393E-01  0.1516082E-02  0.2441700E+01  0.2107686E+06  0.3171402E+00  0.1520301E+00  0.2834062E+01
  0.3550000E+01  0.2689366E+06 -0.7450538E+00  0.6080584E-03  0.3058789E+00  0.4761193E+04  0.3005209E+01  0.3963329E-02  0.4035648E+00  0.2653248E+06 -0.5439298E+00  0.1355860E+00  0.2178277E+01
  0.3600000E+01  0.6404568E+05 -0.5278019E+00  0.3662109E-03 -0.1570796E+01  0.7259063E+04  0.2770723E+01  0.1149312E-01 -0.2378946E+00  0.7838227E+05 -0.1016762E+00  0.5683445E-01  0.2032927E+00
  0.3650000E+01  0.8173512E+05  0.2590631E+01  0.4327286E-03  0.1411445E+01  0.8764396E+04 -0.2782258E+01  0.1036159E-01  0.5354947E+00  0.1197501E+06 -0.3136420E+01  0.2229270E+00  0.1561464E+00
  0.3700000E+01  0.1061771E+06  0.2217974E+01  0.4882812E-03 -0.1570796E+01  0.2608141E+04 -0.3075692E+01  0.2153815E-02  0.3620874E+00  0.1996433E+06 -0.2865508E+01  0.1298319E+00  0.1974700E+01
  0.3750000E+01  0.2873169E+06  0.2117477E+01  0.1999309E-02  0.2926235E+01  0.3104740E+04 -0.1049405E+00  0.1057416E-01  0.2848823E+01  0.1933570E+06  0.2360132E+01  0.2273584E+00  0.2190671E+01
  0.3800000E+01  0.8669898E+05  0.2455027E+01  0.3225060E-02 -0.5144513E+00  0.1090377E+05 -0.3786696E+00  0.6051107E-03  0.1825714E+01  0.9871172E+05  0.2839440E+01  0.1899816E+00  0.3066989E+01
  0.3850000E+01  0.6087195E+05 -0.6865357E+00  0.6171798E-03 -0.1421906E+01  0.3137618E+05 -0.2733984E+01  0.3333281E-01 -0.3336935E+00  0.1336076E+06  0.7768080E+00  0.6266429E-01 -0.2779174E+01
  0.3900000E+01  0.1039495E+06 -0.1207438E+01  0.5627163E-03 -0.2432966E+01  0.5320470E+04 -0.2755746E+01  0.5408697E-02  0.2189749E+00  0.4769966E+06  0.8891447E+00  0.1607365E+00 -0.1980076E+01
  0.3950000E+01  0.2617788E+06 -0.1124007E+01  0.9155273E-04 -0.1570796E+01  0.4316475E+04 -0.2072866E+00  0.4882741E-02  0.2777336E+01  0.3134938E+06  0.1744406E+01  0.9660822E-01 -0.9333603E+00
  0.4000000E+01  0.7310458E+05 -0.8438267E+00  0.4094363E-03  0.4636476E+00  0.2089448E+05 -0.5035135E+00  0.7309533E-02 -0.2319284E+01  0.8278502E+05  0.9752221E+00  0.8900868E-01  0.1969385E+01
  0.4050000E+01  0.6614991E+05  0.2228677E+01  0.7987214E-03 -0.1455920E+01  0.2209993E+05  0.4276916E+00  0.3956541E-01 -0.7836915E-01  0.1387112E+06 -0.2368788E+01  0.7043711E-01  0.1452675E+01
  0.4100000E+01  0.1439423E+06  0.1555892E+01  0.7019043E-03 -0.3141592E+01  0.3158928E+04  0.2293919E+00  0.9414478E-02 -0.2345307E+01  0.4291907E+06 -0.2125019E+01  0.4627918E-01  0.9172718E+00
  0.4150000E+01  0.2202115E+06  0.2062372E+01  0.9785870E-03 -0.1382575E+01  0.5903436E+04  0.2866217E+01  0.7216186E-02  0.5557415E+00  0.1799080E+06 -0.1554069E+01  0.5778453E-01 -0.1646920E+01
  0.4200000E+01  0.2998778E+05  0.2186505E+01  0.7816314E-03  0.8960554E+00  0.1943418E+05  0.2848600E+01  0.2482358E-01  0.2886029E+01  0.3272912E+05 -0.2273741E+01  0.2250865E-01  0.2922924E+01
  0.4250000E+01  0.8588334E+05 -0.1216423E+01  0.1059360E-02 -0.8465464E+00  0.1014594E+05 -0.2691704E+01  0.2048507E-01  0.2860438E+01  0.1774210E+06  0.8393697E+00  0.8178820E-01  0.1943542E+01
  0.4300000E+01  0.2351243E+06 -0.1615886E+01  0.6103516E-04  0.0000000E+00  0.2527218E+02 -0.3082628E+01  0.5290203E-03 -0.9907935E+00  0.3358047E+06  0.1406000E+01  0.1795098E-01 -0.1259798E+01
  0.4350000E+01  0.1396222E+06 -0.1070207E+01  0.2296752E-03 -0.5603600E+00  0.8273047E+04 -0.3635976E+00  0.1648184E-02  0.2563059E+01  0.8479498E+05  0.1200060E+01  0.1900294E+00 -0.1000076E+01
  0.4400000E+01  0.3082677E+05  0.2009339E+01  0.1930101E-03  0.1249046E+01  0.1526889E+05  0.1097037E+00  0.7640061E-02 -0.9375641E-01  0.3732763E+05 -0.2335026E+01  0.5467900E-01 -0.2567004E+01
  0.4450000E+01  0.1447191E+06  0.1504766E+01  0.4740059E-03 -0.3077166E+01  0.3509634E+04  0.2770927E+00  0.3941390E-02 -0.4933555E+00  0.2236629E+06 -0.2109364E+01  0.2061835E+00 -0.1515115E+01
  0.4500000E+01  0.2273038E+06  0.1853976E+01  0.1601010E-02 -0.1179671E+01  0.2828902E+04  0.2941460E+01  0.1108904E-02 -0.1698425E+01  0.1209653E+06 -0.1583405E+01  0.2492018E+00 -0.1777511E+01
  0.4550000E+01  0.3621223E+05  0.1981540E+01  0.1495673E-02 -0.3121187E+01  0.1022623E+05  0.2898643E+01  0.9551993E-02  0.3101646E+01  0.2537529E+05 -0.2336723E+01  0.5177081E-01  0.3002321E+01
  0.4600000E+01  0.1009198E+06 -0.1494295E+01  0.8929977E-03 -0.1276066E+01  0.5369532E+04 -0.2737556E+01  0.7438561E-02  0.2774419E+01  0.1138971E+06  0.9017490E+00  0.1714556E-01 -0.1222025E+01
  0.4650000E+01  0.2457209E+06 -0.1541239E+01  0.2625221E-03  0.2521343E+01  0.3966212E+03 -0.8798851E-02  0.8979871E-03  0.7019452E+00  0.1360699E+06  0.1525703E+01  0.3550654E+00 -0.1548921E+01
  0.4700000E+01  0.9870566E+05 -0.1219977E+01  0.3112195E-03 -0.2944197E+01  0.5769394E+04 -0.3566772E+00  0.6267430E-02  0.2265691E+01  0.3822327E+05  0.8328725E+00  0.3409703E-01 -0.2777375E+01
  0.4750000E+01  0.6838343E+05  0.1708500E+01  0.7629395E-04  0.9272952E+00  0.6049678E+04  0.2740425E+00  0.1238714E-01  0.2978266E+01  0.5072675E+05 -0.2347649E+01  0.1643039E-01  0.2639726E+01
  0.4800000E+01  0.2155016E+06  0.1496279E+01  0.3774816E-03 -0.1325818E+01  0.4961171E+03  0.1359936E+00  0.7439735E-03  0.3038863E+01  0.1128141E+06 -0.1822584E+01  0.8349641E-01 -0.1568055E+01
  0.4850000E+01  0.1418974E+06  0.1841755E+01  0.2264530E-03 -0.1001483E+01  0.2632974E+04  0.2805856E+01  0.3610711E-02 -0.1307880E+01  0.3005038E+05 -0.2317512E+01  0.1351669E+00 -0.8908015E+00
  0.4900000E+01  0.4164587E+05 -0.1430927E+01  0.3411969E-03 -0.4636476E+00  0.4172373E+04 -0.2989999E+01  0.2047270E-02  0.3718561E+00  0.1973433E+05  0.6875485E+00  0.4877726E-01  0.9696488E+00
  0.4950000E+01  0.1949634E+06 -0.1684212E+01  0.2596517E-03 -0.1772254E+00  0.5756655E+03 -0.2956752E+01  0.1739770E-03 -0.6610432E+00  0.7207687E+05  0.1240295E+01  0.4700168E-01  0.1644232E+01
  0.5000000E+01  0.1632597E+06 -0.1340597E+01  0.4131700E-03  0.2858537E+01  0.9847377E+03 -0.2539223E+00  0.2923582E-02  0.3034394E+01  0.1563939E+05  0.4365669E+00  0.1346777E+00  0.1748015E+01
