VARIABLES="w (rad/s)"
"abs(F   1   1)" "angle(F   1   1)"
"abs(F   1   2)" "angle(F   1   2)"
"abs(F   1   3)" "angle(F   1   3)"
"abs(F   1   4)" "angle(F   1   4)"
"abs(F   1   5)" "angle(F   1   5)"
"abs(F   1   6)" "angle(F   1   6)"
Zone t="Diffraction force - beta =   0.000 deg",I=    95,F=POINT
  0.3000000E+00  0.1162583E+07 -0.1568135E+01  0.4406202E+00 -0.5817920E-02  0.6573898E+07 -0.2871940E-01  0.5530411E+01  0.7063278E-02  0.9046874E+07 -0.1568138E+01  0.1132991E+01  0.1447497E+01
  0.3500000E+00  0.1420101E+07 -0.1566013E+01  0.6936403E+00 -0.2963077E+01  0.6088772E+07 -0.4547481E-01  0.3269584E+01  0.2509183E-01  0.1068206E+08 -0.1566031E+01  0.2014238E+01 -0.2373337E+01
  0.4000000E+00  0.1709265E+07 -0.1562342E+01  0.1937335E+01  0.3117394E+01  0.5563786E+07 -0.7012761E-01  0.1630746E+02 -0.3131592E+01  0.1234950E+08 -0.1562372E+01  0.6854805E+01  0.1494218E+01
  0.4500000E+00  0.2029422E+07 -0.1556282E+01  0.4779253E+00 -0.3035138E+01  0.5023686E+07 -0.1047860E+00  0.3992510E+00 -0.2168296E+01  0.1400916E+08 -0.1556438E+01  0.3441335E+01  0.1247621E+01
  0.5000000E+00  0.2361813E+07 -0.1547450E+01  0.2219739E+00  0.2671304E+01  0.4499764E+07 -0.1471849E+00  0.4267428E+01 -0.9534218E-01  0.1556491E+08 -0.1547745E+01  0.2164435E+01 -0.1486437E+01
  0.5500000E+00  0.2687072E+07 -0.1536191E+01  0.2590199E+00  0.9952116E+00  0.3994529E+07 -0.1990889E+00  0.8465417E+01 -0.3109055E+01  0.1681798E+08 -0.1536830E+01  0.7188045E+00  0.1082193E+00
  0.6000000E+00  0.2965854E+07 -0.1524521E+01  0.3270658E+00  0.2243264E+01  0.3520488E+07 -0.2572552E+00  0.6009862E+01 -0.2896378E+01  0.1758616E+08 -0.1525702E+01  0.4463302E+01  0.1418472E+01
  0.6500000E+00  0.3164328E+07 -0.1515898E+01  0.5033575E-01 -0.1529558E+01  0.3075205E+07 -0.3181735E+00  0.5461092E+01  0.7510622E-02  0.1782378E+08 -0.1517884E+01  0.3889349E+01 -0.1560941E+01
  0.7000000E+00  0.3256636E+07 -0.1515037E+01  0.2472402E+00  0.3974687E+00  0.2653380E+07 -0.3819977E+00  0.5207745E+01 -0.6041858E-01  0.1737776E+08 -0.1518529E+01  0.2195313E+01 -0.1772336E+01
  0.7500000E+00  0.3231991E+07 -0.1528316E+01  0.1038596E+00  0.2207716E+01  0.2254071E+07 -0.4423147E+00  0.4710687E+00 -0.2988038E+00  0.1651287E+08 -0.1531783E+01  0.2000086E+01 -0.1914937E+01
  0.8000000E+00  0.3094454E+07 -0.1561071E+01  0.2699738E+00 -0.6238763E+00  0.1864564E+07 -0.5007274E+00  0.7281701E+00  0.2949983E+01  0.1518544E+08 -0.1563140E+01  0.4711080E+01  0.1537675E+01
  0.8500000E+00  0.2858674E+07 -0.1620481E+01  0.3886758E+00 -0.2900575E+01  0.1483903E+07 -0.5559497E+00  0.2071152E+01  0.3503824E+00  0.1377328E+08 -0.1612247E+01  0.6716535E+01 -0.1761918E+01
  0.9000000E+00  0.2547420E+07 -0.1714690E+01  0.3353792E+00  0.2063992E+01  0.1104821E+07 -0.6253433E+00  0.2748527E+01  0.1690404E+00  0.1231308E+08 -0.1679480E+01  0.1114037E+02 -0.1628125E+01
  0.9500000E+00  0.2185945E+07 -0.1859688E+01  0.2391363E+00  0.2981647E+01  0.7600777E+06 -0.7474545E+00  0.1552857E+01 -0.3760686E+00  0.1093033E+08 -0.1758281E+01  0.2023874E+02 -0.1591558E+01
  0.9999999E+00  0.1821265E+07 -0.2089525E+01  0.8114436E-01 -0.2343430E+01  0.4890097E+06 -0.9853892E+00  0.1622304E+01 -0.5728930E+00  0.9770829E+07 -0.1832323E+01  0.7850470E+01 -0.1024414E+01
  0.1050000E+01  0.1557192E+07 -0.2451789E+01  0.2112627E-01 -0.2553590E+01  0.3235701E+06 -0.1402408E+01  0.2603140E+01 -0.2496191E+00  0.8646529E+07 -0.1893257E+01  0.8548464E+01  0.1233367E+01
  0.1100000E+01  0.1571758E+07 -0.2908248E+01  0.3337859E-01  0.1673376E+01  0.2499199E+06 -0.1929755E+01  0.6483932E+00  0.2830083E+01  0.7495519E+07 -0.1919367E+01  0.4005562E+01  0.1374496E+01
  0.1150000E+01  0.1885005E+07  0.3030650E+01  0.3304478E-01  0.3310960E+00  0.2256424E+06 -0.2414357E+01  0.8274270E+00  0.9456011E-01  0.6188840E+07 -0.1902399E+01  0.6674207E+01  0.1397271E+01
  0.1200000E+01  0.2225519E+07  0.2852312E+01  0.1018403E+00  0.3626988E+00  0.2130189E+06 -0.2823363E+01  0.2735670E+00  0.2858727E+01  0.4676593E+07 -0.1879063E+01  0.5546474E+01  0.1878836E+01
  0.1250000E+01  0.2380845E+07  0.2739641E+01  0.4035047E-01  0.3715179E+00  0.2033626E+06  0.3085599E+01  0.3382356E+00 -0.3270004E+00  0.3235955E+07 -0.1883197E+01  0.7511360E+01 -0.1242915E+01
  0.1300000E+01  0.2337405E+07  0.2617878E+01  0.3243512E-01 -0.5953094E+00  0.1984055E+06  0.2773326E+01  0.1983643E+00 -0.6151592E-03  0.2069887E+07 -0.1927514E+01  0.5650609E+01  0.1498839E+01
  0.1350000E+01  0.2176173E+07  0.2457918E+01  0.7637820E-01  0.1902908E+01  0.1317474E+06  0.2449381E+01  0.1608384E+00  0.2534302E+01  0.1228075E+07 -0.2031981E+01  0.5606448E+01  0.1557558E+01
  0.1400000E+01  0.1966690E+07  0.2252358E+01  0.1609741E+00 -0.6400347E-01  0.1812684E+06  0.2272465E+01  0.2117874E+00 -0.2693928E+01  0.6497176E+06 -0.2205957E+01  0.9754964E+00  0.6811509E+00
  0.1450000E+01  0.1756746E+07  0.2001639E+01  0.1505070E+00  0.1450800E+00  0.1571520E+06  0.2093716E+01  0.3264180E+00  0.4733478E+00  0.2667068E+06 -0.2498764E+01  0.3264884E+01 -0.1885547E+01
  0.1500000E+01  0.1581772E+07  0.1680859E+01  0.5204335E-01 -0.3988491E-01  0.1255197E+06  0.1898504E+01  0.1291009E-01 -0.2912662E+01  0.1198366E+06  0.1892557E+01  0.7441138E+00  0.1135765E+01
  0.1550000E+01  0.1456243E+07  0.1370625E+01  0.6886189E-01  0.2995716E+01  0.9451834E+05  0.1642206E+01  0.2948798E+00  0.3122106E+00  0.2726738E+06  0.1426630E+01  0.1434341E+01 -0.1726486E+01
  0.1600000E+01  0.1366073E+07  0.1034873E+01  0.4161595E-02 -0.1497399E+01  0.7007934E+05  0.1306794E+01  0.1375297E+00  0.3877585E+00  0.3644605E+06  0.1210079E+01  0.5620539E+00  0.2541542E+01
  0.1650000E+01  0.1289480E+07  0.6960154E+00  0.2901579E-01 -0.5389766E+00  0.4921309E+05  0.8836064E+00  0.8343877E-01 -0.3061363E+00  0.3984183E+06  0.1036506E+01  0.1998681E+01  0.1398941E+01
  0.1700000E+01  0.1212452E+07  0.3451992E+00  0.2653197E-01 -0.4574749E+00  0.4551166E+05  0.4950234E+00  0.1410738E+00  0.8264040E+00  0.3845973E+06  0.8533759E+00  0.2213542E+01  0.1366436E+01
  0.1750000E+01  0.1149062E+07 -0.2579935E-01  0.2941692E-01 -0.8882785E+00  0.3607467E+05  0.5640463E-01  0.5720397E-01 -0.2909036E+01  0.3224004E+06  0.6360549E+00  0.2624364E+01  0.1997819E+01
  0.1800000E+01  0.1105384E+07 -0.4003260E+00  0.4821036E-01 -0.2693798E+01  0.2903761E+05 -0.3234278E+00  0.7084285E-02  0.3107124E+01  0.2698497E+06  0.2444127E+00  0.9728915E+00  0.2418584E+01
  0.1850000E+01  0.9218245E+06 -0.7881640E+00  0.1072553E-01  0.1777119E+01  0.2222347E+05 -0.7377363E+00  0.3672268E-02  0.1839964E+01  0.3092491E+06  0.2111735E+00  0.2159508E+01 -0.9825916E+00
  0.1900000E+01  0.1099456E+07 -0.1137383E+01  0.1754079E-01 -0.2987885E+01  0.1677470E+05 -0.1224281E+01  0.3171601E-01  0.2480001E+01  0.2487135E+06 -0.1114850E+01  0.5852249E+00  0.2827757E+01
  0.1950000E+01  0.1012117E+07 -0.1477537E+01  0.1127285E-01  0.1262743E+01  0.1371345E+05 -0.1792460E+01  0.3772842E-01  0.1624892E+00  0.3012081E+06 -0.1472428E+01  0.2644682E+00  0.2458201E+01
  0.2000000E+01  0.9094844E+06 -0.1864916E+01  0.1550530E-01 -0.8100168E+00  0.1164666E+05 -0.2470887E+01  0.6682454E-02 -0.2032943E+01  0.3327729E+06 -0.1873905E+01  0.1135510E+01 -0.1381539E+01
  0.2050000E+01  0.8253728E+06 -0.2321002E+01  0.8819527E-02 -0.1653937E+01  0.1861041E+05 -0.2407676E+01  0.1236339E-01 -0.2917569E+01  0.3528535E+06 -0.2289322E+01  0.7794562E+00  0.3077025E+01
  0.2100000E+01  0.8019144E+06 -0.2805832E+01  0.2988505E-01  0.8178442E-01  0.1023688E+05 -0.2845546E+01  0.3351445E-01 -0.2446474E+00  0.3887532E+06 -0.2754097E+01  0.4995120E+00  0.9775019E-03
  0.2150000E+01  0.8055552E+06  0.3052531E+01  0.1049805E-01  0.1570796E+01  0.5803669E+04 -0.3131850E+01  0.1777729E-01  0.2761724E+01  0.4512282E+06  0.3126925E+01  0.5910866E+00  0.2137343E+00
  0.2200000E+01  0.5741125E+06  0.2652291E+01  0.1079995E-01  0.1132705E+00  0.1748919E+04  0.1829689E+01  0.5997927E-02 -0.2116452E+01  0.4387335E+06 -0.3050374E+01  0.8037323E+00 -0.2658926E+01
  0.2250000E+01  0.8130046E+06  0.2175067E+01  0.1442349E-01  0.3089997E+01  0.4306887E+04  0.4552973E+00  0.2361726E-01 -0.2882197E+01  0.4746672E+06  0.2169157E+01  0.6913505E+00  0.6324832E+00
  0.2300000E+01  0.7385659E+06  0.1771219E+01  0.2031654E-01 -0.7216364E-01  0.7223332E+04  0.1606538E+00  0.1028846E-01 -0.4331328E+00  0.4837446E+06  0.1776973E+01  0.2701414E+00  0.2906258E+01
  0.2350000E+01  0.6775149E+06  0.1318725E+01  0.2369874E-01  0.3799718E-01  0.1300821E+05 -0.5674816E+00  0.5408591E-01 -0.1051428E+00  0.4917392E+06  0.1317212E+01  0.7391971E+00  0.9065522E+00
  0.2400000E+01  0.6195268E+06  0.8283515E+00  0.1708984E-01  0.0000000E+00  0.8214963E+04  0.4493572E+00  0.6506139E-02 -0.2512361E+00  0.4966650E+06  0.8339747E+00  0.1159537E+01 -0.1333171E+01
  0.2450000E+01  0.5684066E+06  0.3346182E+00  0.8064959E-02  0.1616220E+01  0.3847120E+04  0.1117938E+00  0.8594709E-02 -0.2797524E+01  0.5220742E+06  0.3641000E+00  0.3588324E+00  0.8243769E+00
  0.2500000E+01  0.4366496E+06 -0.1313291E+00  0.4065143E-02 -0.2419938E+01  0.6314000E+03 -0.3059374E+01  0.2649772E-02  0.1455370E+01  0.5279027E+06  0.9723291E-01  0.5996550E+00 -0.1253640E+01
  0.2550000E+01  0.6398186E+06 -0.8797243E+00  0.2060060E-01  0.9495166E-01  0.4807604E+04  0.3083946E+01  0.2181274E-01 -0.2823934E+01  0.5118338E+06 -0.9016982E+00  0.5506620E+00 -0.9586898E+00
  0.2600000E+01  0.5855386E+06 -0.1263222E+01  0.6181146E-02  0.2982938E+01  0.7652368E+04  0.2981064E+01  0.8137009E-02  0.3109943E+01  0.5453278E+06 -0.1256594E+01  0.1473187E+01  0.1622856E+01
  0.2650000E+01  0.5228908E+06 -0.1735553E+01  0.1049876E-01  0.1162738E-01  0.1437178E+05  0.2647580E+01  0.3005068E-01 -0.3050577E+01  0.5343066E+06 -0.1738928E+01  0.3322122E+00 -0.2815427E+01
  0.2700000E+01  0.4605039E+06 -0.2274710E+01  0.1895041E-02  0.2880991E+01  0.7279872E+04 -0.2617521E+01  0.8544564E-02  0.9408676E+00  0.5221123E+06 -0.2258230E+01  0.2417116E+00  0.1332188E+01
  0.2750000E+01  0.3994453E+06 -0.2836071E+01  0.5662799E-02 -0.3011890E+01  0.2269985E+04 -0.3075208E+01  0.4556315E-02  0.3273104E+00  0.5179586E+06 -0.2747165E+01  0.4615983E+00  0.2837572E+01
  0.2800000E+01  0.3609517E+06  0.1943720E+01  0.4586986E-02 -0.2701750E+01  0.2233736E+04 -0.7248337E-01  0.1170741E-01 -0.2735974E+01  0.1769798E+06  0.2991439E+01  0.1221916E+01  0.1814975E+01
  0.2850000E+01  0.5131909E+06  0.2158377E+01  0.6844176E-02  0.2473119E+01  0.6888365E+04 -0.1753684E+00  0.6840926E-02  0.3820658E-01  0.5422716E+06  0.2159734E+01  0.8159186E+00 -0.1571994E+01
  0.2900000E+01  0.4505794E+06  0.1686758E+01  0.3613466E-02 -0.9171605E+00  0.1116725E+05 -0.3617169E+00  0.9740786E-02 -0.2180955E+00  0.5303944E+06  0.1689262E+01  0.3246379E+00 -0.1427038E+01
  0.2950000E+01  0.3905672E+06  0.1151798E+01  0.1930101E-02  0.3217504E+00  0.1273854E+05  0.4554302E+00  0.3101217E-01 -0.8099604E-01  0.5154134E+06  0.1152220E+01  0.1191519E+00 -0.2997668E+01
  0.3000000E+01  0.3014633E+06  0.5617105E+00  0.2607423E-02 -0.1002272E+01  0.4197001E+04  0.1731653E+00  0.7865682E-02 -0.3101086E+01  0.4764892E+06  0.6578669E+00  0.2208966E+00 -0.3038625E+01
  0.3050000E+01  0.1568809E+06 -0.9446536E+00  0.2065298E-02 -0.9745972E+00  0.9144518E+03  0.3133295E+01  0.5516884E-02  0.1451974E+00  0.2607805E+06  0.3602967E+00  0.1929882E+00  0.1450325E+01
  0.3100000E+01  0.4473297E+06 -0.9583160E+00  0.1049433E-01 -0.2991265E+01  0.5733546E+04  0.2909434E+01  0.2639369E-01  0.3057074E+01  0.5023683E+06 -0.9577093E+00  0.2884668E+00  0.1443502E+01
  0.3150000E+01  0.3800080E+06 -0.1416222E+01  0.2357570E-02  0.2770701E+01  0.1163080E+05  0.2619418E+01  0.2788499E-01  0.9343421E-01  0.4958899E+06 -0.1414828E+01  0.2533069E-01  0.4593374E+00
  0.3200000E+01  0.3088735E+06 -0.1954859E+01  0.8738904E-03  0.4324078E+00  0.1399812E+05 -0.2626212E+01  0.2058408E-01 -0.1118909E-01  0.4654123E+06 -0.1944881E+01  0.1646676E+00 -0.1363224E+01
  0.3250000E+01  0.2152062E+06 -0.2638793E+01  0.8802615E-03  0.9827938E+00  0.3555060E+04 -0.2954970E+01  0.1016214E-01  0.2886750E+01  0.4069956E+06 -0.2483173E+01  0.2380496E+00  0.2977793E+01
  0.3300000E+01  0.3512828E+06  0.1800081E+01  0.5746388E-02 -0.2927532E+01  0.1849811E+04 -0.1189289E+00  0.2943081E-02  0.7121544E+00  0.1867275E+06  0.2107095E+01  0.4460598E+00 -0.1204723E+01
  0.3350000E+01  0.3760759E+06  0.2055791E+01  0.4225556E-02  0.1888971E+00  0.7557761E+04 -0.2413041E+00  0.1671823E-01 -0.2677995E+01  0.4686358E+06  0.2073776E+01  0.4649148E+00  0.1375254E+01
  0.3400000E+01  0.3035799E+06  0.1566349E+01  0.4882809E-03  0.1570797E+01  0.1703046E+05 -0.3022974E+00  0.6463468E-02 -0.9674313E+00  0.4438546E+06  0.1566222E+01  0.2157302E+00 -0.1608593E+01
  0.3450000E+01  0.2117587E+06  0.9599336E+00  0.1404140E-02  0.2310073E+01  0.7622078E+04  0.3275258E+00  0.4312809E-02  0.2855983E+01  0.3955052E+06  0.1022703E+01  0.3394019E+00 -0.3125047E+01
  0.3500000E+01  0.7815768E+05 -0.5386255E+00  0.1709257E-02  0.1552941E+01  0.1319791E+04  0.5837374E-01  0.2064573E-02  0.1907835E+01  0.2401438E+06  0.5846460E+00  0.1838519E+00  0.2951555E+01
  0.3550000E+01  0.3825494E+06 -0.1027746E+01  0.1650490E-02  0.1515298E+01  0.4760685E+04  0.3005194E+01  0.8465654E-02  0.1257003E+00  0.4232041E+06 -0.1004555E+01  0.1176591E+00 -0.2288650E+01
  0.3600000E+01  0.2907503E+06 -0.1379327E+01  0.2240913E-02 -0.5123895E+00  0.7258475E+04  0.2770692E+01  0.1866440E-01 -0.1988941E+00  0.4031098E+06 -0.1376129E+01  0.1690877E+00  0.1298149E+01
  0.3650000E+01  0.1980544E+06 -0.1930098E+01  0.5988467E-03  0.2347186E+01  0.8764021E+04 -0.2782242E+01  0.5435001E-02  0.1336048E+01  0.3731517E+06 -0.1897487E+01  0.2491413E+00  0.2861068E+00
  0.3700000E+01  0.6407510E+05 -0.3099406E+01  0.1544081E-02 -0.1249046E+01  0.2608034E+04 -0.3075689E+01  0.1912584E-02  0.1997758E+01  0.2707583E+06 -0.2359478E+01  0.1883200E+00  0.1988626E+01
  0.3750000E+01  0.3683493E+06  0.1988314E+01  0.1727414E-02  0.2582993E+01  0.3104662E+04 -0.1049431E+00  0.1163518E-01  0.2876164E+01  0.3116936E+06  0.2026810E+01  0.3536150E+00  0.1923991E+01
  0.3800000E+01  0.2734490E+06  0.1818544E+01  0.5389097E-02 -0.2284967E+00  0.1090365E+05 -0.3786738E+00  0.1845471E-01  0.2517246E-01  0.3749088E+06  0.1824889E+01  0.6560762E+00  0.1882250E+01
  0.3850000E+01  0.1734353E+06  0.1295884E+01  0.6171798E-03 -0.1421906E+01  0.3137626E+05 -0.2733985E+01  0.1957810E-01 -0.6529304E+00  0.4329185E+06  0.1348885E+01  0.3269329E+00 -0.1760869E+01
  0.3900000E+01  0.3911704E+05 -0.3347873E+00  0.1393905E-02  0.3053906E+01  0.5320492E+04 -0.2755748E+01  0.6871121E-02  0.1717557E+00  0.5886976E+06  0.1035002E+01  0.2507623E+00 -0.1836792E+01
  0.3950000E+01  0.3346359E+06 -0.1226004E+01  0.9808447E-03 -0.3048115E+01  0.4316490E+04 -0.2072859E+00  0.6013141E-02  0.2673008E+01  0.1888428E+06  0.1861639E+01  0.5713229E-01 -0.6628366E-01
  0.4000000E+01  0.2448202E+06 -0.1371014E+01  0.2332350E-02  0.1056902E+00  0.2089450E+05 -0.5035129E+00  0.9243949E-02 -0.2626343E+01  0.2384407E+06 -0.1374773E+01  0.2104346E+00  0.1763414E+01
  0.4050000E+01  0.1265466E+06 -0.1896124E+01  0.3123695E-02 -0.2568264E+00  0.2209995E+05  0.4276913E+00  0.3831783E-01 -0.8092692E-01  0.3923511E+06 -0.1826698E+01  0.7797351E-01  0.1378620E+01
  0.4100000E+01  0.9170637E+05  0.1547401E+01  0.1091830E-02  0.4636475E+00  0.3158931E+04  0.2293917E+00  0.1079303E-01 -0.2579479E+01  0.5045580E+06 -0.2034954E+01  0.1079376E+00  0.1283564E+01
  0.4150000E+01  0.3063110E+06  0.1917010E+01  0.1172546E-02 -0.9611366E+00  0.5903439E+04  0.2866217E+01  0.7724492E-02  0.5153891E+00  0.2411939E+05 -0.1445704E+01  0.4077764E+00 -0.1588160E+01
  0.4200000E+01  0.1951644E+06  0.1659654E+01  0.3913871E-02  0.3079174E+01  0.1943418E+05  0.2848600E+01  0.2783876E-01  0.2889397E+01  0.2591683E+06  0.1652526E+01  0.5879510E-01  0.1749257E+01
  0.4250000E+01  0.5562558E+05  0.1005392E+01  0.1430425E-02 -0.5880027E+00  0.1014594E+05 -0.2691704E+01  0.1926005E-01  0.2815373E+01  0.3653550E+06  0.1240465E+01  0.3413516E-01  0.2442275E+01
  0.4300000E+01  0.2346629E+06 -0.1615975E+01  0.6103516E-03  0.9272952E+00  0.2527219E+02 -0.3082628E+01  0.4909605E-03 -0.2018647E+01  0.3365711E+06  0.1406379E+01  0.4534729E-01 -0.1416750E+01
  0.4350000E+01  0.2507392E+06 -0.1300256E+01  0.1409318E-02 -0.2693682E+01  0.8273048E+04 -0.3635975E+00  0.4559280E-02  0.1989707E+00  0.1259461E+06 -0.1324385E+01  0.3869186E+00 -0.1309442E+01
  0.4400000E+01  0.1190699E+06 -0.1680951E+01  0.6283954E-03  0.5070986E+00  0.1526889E+05  0.1097037E+00  0.3749746E-02 -0.1259752E+00  0.2760797E+06 -0.1664493E+01  0.2123632E+00  0.1754037E+01
  0.4450000E+01  0.7996545E+05  0.1451097E+01  0.1404223E-02  0.2809533E+01  0.3509634E+04  0.2770927E+00  0.6309089E-02 -0.1415407E+00  0.3236067E+06 -0.1933174E+01  0.2514959E+00 -0.1542641E+01
  0.4500000E+01  0.2850015E+06  0.1795527E+01  0.2354457E-02 -0.2461791E+01  0.2828902E+04  0.2941460E+01  0.4767196E-02 -0.2908777E+01  0.1932246E+05 -0.1649809E+01  0.2764019E+00 -0.1739866E+01
  0.4550000E+01  0.1648734E+06  0.1658608E+01  0.4587793E-03  0.6656703E-01  0.1022623E+05  0.2898643E+01  0.2469283E-01  0.3131087E+01  0.2067998E+06  0.1655958E+01  0.1079595E+00  0.2096745E+01
  0.4600000E+01  0.8843867E+04 -0.5112576E+00  0.1138698E-02 -0.2575891E+01  0.5369532E+04 -0.2737556E+01  0.3523258E-02  0.2281500E+01  0.2643007E+06  0.1300222E+01  0.5959482E-01 -0.1542115E+01
  0.4650000E+01  0.2581640E+06 -0.1542664E+01  0.6913764E-03  0.1955401E+01  0.3966212E+03 -0.8798851E-02  0.3728053E-02  0.2455979E-01  0.1146640E+06  0.1517277E+01  0.3342269E+00 -0.1551941E+01
  0.4700000E+01  0.1997457E+06 -0.1400144E+01  0.3558930E-03  0.2601173E+01  0.5769394E+04 -0.3566772E+00  0.7965703E-02  0.2492632E+01  0.1536576E+06 -0.1402653E+01  0.3298141E-01 -0.2724308E+01
  0.4750000E+01  0.3762902E+05 -0.1822918E+01  0.2732005E-02  0.2234265E-01  0.6049678E+04  0.2740425E+00  0.1228090E-01  0.2996961E+01  0.2193194E+06 -0.1733660E+01  0.4541305E-01 -0.2109948E+01
  0.4800000E+01  0.1987741E+06  0.1489995E+01  0.5862234E-03 -0.6747411E+00  0.4961171E+03  0.1359936E+00  0.4946383E-03  0.2986733E+01  0.1411768E+06 -0.1771219E+01  0.3609838E-01 -0.1700079E+01
  0.4850000E+01  0.2192504E+06  0.1744899E+01  0.6394598E-03 -0.2838707E+01  0.2632974E+04  0.2805856E+01  0.4455563E-02 -0.2039568E+01  0.1173843E+06  0.1745568E+01  0.1384411E+00 -0.8526298E+00
  0.4900000E+01  0.5885521E+05  0.1471986E+01  0.3400967E-02 -0.2980501E+01  0.4172373E+04 -0.2989999E+01  0.8483836E-03  0.2278435E+01  0.1869189E+06  0.1489115E+01  0.5921494E-01 -0.1128786E+01
  0.4950000E+01  0.1647729E+06 -0.1705108E+01  0.8915057E-03 -0.2810370E+01  0.5756655E+03 -0.2956752E+01  0.6079233E-03 -0.2964977E+01  0.1234752E+06  0.1380212E+01  0.5245432E-01  0.1659929E+01
  0.5000000E+01  0.2238598E+06 -0.1403614E+01  0.7886291E-03  0.4733824E+00  0.9847377E+03 -0.2539223E+00  0.1951137E-02  0.2980579E+01  0.1023265E+06 -0.1431846E+01  0.6588419E-01  0.1788360E+01
