VARIABLES="w (rad/s)"
"abs(F   1   1)" "angle(F   1   1)"
"abs(F   1   2)" "angle(F   1   2)"
"abs(F   1   3)" "angle(F   1   3)"
"abs(F   1   4)" "angle(F   1   4)"
"abs(F   1   5)" "angle(F   1   5)"
"abs(F   1   6)" "angle(F   1   6)"
Zone t="FKforce - beta =   0.000",I=    95,F=POINT
  0.3000000E+00  0.8624141E+06 -0.1570796E+01  0.4517306E+00 -0.4974248E-01  0.7293652E+07 -0.1024275E-07  0.5406488E+01  0.9392788E-02  0.8926569E+07 -0.1570796E+01  0.1333497E+01  0.1448190E+01
  0.3500000E+00  0.1051327E+07 -0.1570796E+01  0.7324538E+00  0.3132260E+01  0.7022692E+07  0.1585263E-07  0.2985502E+01  0.2747999E-01  0.1071086E+08 -0.1570793E+01  0.2167023E+01 -0.2407840E+01
  0.4000000E+00  0.1263279E+07 -0.1570796E+01  0.1943377E+01  0.3137321E+01  0.6710575E+07 -0.3565385E-07  0.1560946E+02 -0.3138340E+01  0.1264216E+08 -0.1570796E+01  0.6754612E+01  0.1515105E+01
  0.4500000E+00  0.1498414E+07 -0.1570796E+01  0.4453393E+00 -0.3130628E+01  0.6358254E+07  0.2035064E-07  0.1703488E+01 -0.3120953E+01  0.1470751E+08 -0.1570795E+01  0.3089032E+01  0.1284593E+01
  0.5000000E+00  0.1750954E+07 -0.1570796E+01  0.1191446E+00  0.3133396E+01  0.5967748E+07 -0.2372781E-08  0.3204078E+01  0.2438541E-01  0.1684299E+08 -0.1570796E+01  0.1746251E+01 -0.1557374E+01
  0.5500000E+00  0.2009003E+07 -0.1570796E+01  0.2461015E+00 -0.7936342E-02  0.5542343E+07 -0.1286262E-07  0.8507812E+01  0.3141593E+01  0.1893783E+08 -0.1570796E+01  0.8729857E+00  0.3805064E+00
  0.6000000E+00  0.2257250E+07 -0.1570796E+01  0.2867388E+00 -0.2928834E+01  0.5086743E+07  0.5759456E-09  0.4206964E+01  0.3098868E+01  0.2086432E+08 -0.1570796E+01  0.4173937E+01  0.1454016E+01
  0.6500000E+00  0.2479875E+07 -0.1570796E+01  0.5313075E-01 -0.2843094E+01  0.4606953E+07 -0.4239516E-07  0.6344443E+01 -0.1477725E-01  0.2250768E+08 -0.1570796E+01  0.3885167E+01 -0.1491788E+01
  0.7000000E+00  0.2661871E+07 -0.1570796E+01  0.2680001E+00  0.1022067E+00  0.4110109E+07  0.2922482E-07  0.5012588E+01 -0.4365399E-01  0.2377782E+08 -0.1570796E+01  0.1340079E+01 -0.1734028E+01
  0.7500000E+00  0.2789272E+07 -0.1570796E+01  0.1008274E+00  0.2591207E+01  0.3604460E+07 -0.7667366E-07  0.3700231E+00  0.1911845E+00  0.2460963E+08 -0.1570796E+01  0.2042167E+01 -0.1872055E+01
  0.8000000E+00  0.2849412E+07 -0.1570796E+01  0.2461020E+00 -0.6353267E-01  0.3099050E+07  0.1203746E-06  0.1378995E+01 -0.3130262E+01  0.2496152E+08 -0.1570796E+01  0.1316692E+01  0.1313765E+01
  0.8500000E+00  0.2831496E+07 -0.1570796E+01  0.4871584E+00 -0.3121545E+01  0.2603537E+07  0.8402031E-07  0.1013218E+01  0.3461360E+00  0.2481426E+08 -0.1570796E+01  0.6861329E+01 -0.1571294E+01
  0.9000000E+00  0.2727477E+07 -0.1570796E+01  0.4487534E-01  0.2642354E+01  0.2127666E+07 -0.5737288E-07  0.1397397E+01  0.2795741E-01  0.2417148E+08 -0.1570796E+01  0.1080151E+02 -0.1616888E+01
  0.9500000E+00  0.2533104E+07 -0.1570796E+01  0.1384553E+00  0.2735543E+01  0.1680908E+07 -0.4183007E-07  0.7464369E+00 -0.2811154E+01  0.2305940E+08 -0.1570796E+01  0.2038843E+02 -0.1579286E+01
  0.9999999E+00  0.2248888E+07 -0.1570796E+01  0.6106640E-01 -0.3109604E+01  0.1271856E+07  0.9789768E-07  0.2567129E+01 -0.4566511E-01  0.2152538E+08 -0.1570796E+01  0.7105576E+01 -0.1576294E+01
  0.1050000E+01  0.1880997E+07 -0.1570796E+01  0.3041487E-01  0.7399749E+00  0.9077914E+06 -0.4249238E-06  0.2322488E+01  0.7238595E-01  0.1963531E+08 -0.1570796E+01  0.9349228E+01  0.1582078E+01
  0.1100000E+01  0.1441793E+07 -0.1570796E+01  0.5211588E-01  0.1797595E+01  0.5941932E+06 -0.2079040E-06  0.3808544E+00 -0.3671738E+00  0.1747022E+08 -0.1570796E+01  0.7896658E+01  0.1553729E+01
  0.1150000E+01  0.9499705E+06 -0.1570796E+01  0.2974911E-01  0.1975688E+01  0.3343768E+06  0.2774518E-07  0.3975413E+00 -0.1231362E+00  0.1512122E+08 -0.1570796E+01  0.4801593E+00  0.1290541E+01
  0.1200000E+01  0.4301607E+06 -0.1570796E+01  0.4310448E-01  0.7937831E-01  0.1292788E+06  0.3374716E-05  0.4497322E+00  0.3093803E+01  0.1268403E+08 -0.1570796E+01  0.9604171E+00 -0.1637956E+01
  0.1250000E+01  0.8815405E+05  0.1570796E+01  0.3837282E-01  0.2573237E+00  0.2260471E+05 -0.3141588E+01  0.1950688E+00 -0.3447077E+00  0.1025393E+08 -0.1570796E+01  0.8429081E+01 -0.1531975E+01
  0.1300000E+01  0.5723812E+06  0.1570796E+01  0.4308235E-01 -0.3109983E+00  0.1250897E+06  0.3141593E+01  0.2629625E+00  0.3152915E+00  0.7920016E+07 -0.1570796E+01  0.5993395E+01  0.1614967E+01
  0.1350000E+01  0.9892610E+06  0.1570796E+01  0.1842574E-01  0.2129396E+01  0.1839889E+06 -0.3141593E+01  0.1771566E+00 -0.2947440E+01  0.5760904E+07 -0.1570796E+01  0.5110867E+01  0.1567548E+01
  0.1400000E+01  0.1307816E+07  0.1570796E+01  0.1445840E+00  0.2702045E-01  0.2066307E+06  0.3141592E+01  0.2077486E+00 -0.2981081E+01  0.3841010E+07 -0.1570797E+01  0.9496898E+00  0.1724618E+01
  0.1450000E+01  0.1502679E+07  0.1570796E+01  0.1379721E+00  0.1348902E+00  0.2012674E+06  0.3141592E+01  0.1025577E+00  0.1904532E-01  0.2208088E+07 -0.1570796E+01  0.3155001E+01 -0.1686820E+01
  0.1500000E+01  0.1557361E+07  0.1570796E+01  0.2617206E-01  0.1498125E+00  0.1764120E+06 -0.3141593E+01  0.1752930E+00  0.0000000E+00  0.8919515E+06 -0.1570795E+01  0.8000873E+00  0.1428425E+01
  0.1550000E+01  0.1467180E+07  0.1570796E+01  0.6838199E-01  0.3055802E+01  0.1401888E+06  0.3141592E+01  0.1756196E+00  0.3337020E-01  0.9601889E+05  0.1570787E+01  0.1898071E+01 -0.1639794E+01
  0.1600000E+01  0.1241231E+07  0.1570796E+01  0.7324219E-02 -0.9272952E+00  0.9975410E+05 -0.3141592E+01  0.3597742E-01  0.3005454E+01  0.7623262E+06  0.1570796E+01  0.1975175E+00  0.2417414E+01
  0.1650000E+01  0.9030707E+06  0.1570796E+01  0.3373031E-01 -0.3858827E+00  0.6085712E+05 -0.3141592E+01  0.5328310E-01 -0.2686141E+01  0.1130286E+07  0.1570796E+01  0.1857480E+01  0.1611290E+01
  0.1700000E+01  0.4896506E+06  0.1570796E+01  0.2667285E-01 -0.4145069E+00  0.2757802E+05 -0.3141593E+01  0.2013235E-01  0.2743070E+01  0.1238374E+07  0.1570796E+01  0.2532716E+01  0.1571568E+01
  0.1750000E+01  0.4830345E+05  0.1570796E+01  0.2727828E-01 -0.7727406E+00  0.2265899E+04 -0.3141587E+01  0.1678899E-01 -0.2428235E+01  0.1137929E+07  0.1570796E+01  0.1864668E+01  0.1582842E+01
  0.1800000E+01  0.3681459E+06 -0.1570796E+01  0.4511848E-01 -0.2711830E+01  0.1433146E+05 -0.1165055E-05  0.9874878E-02  0.1488899E+00  0.8900572E+06  0.1570796E+01  0.1847259E+00  0.1438245E+01
  0.1850000E+01  0.7078576E+06 -0.1570796E+01  0.7873299E-02 -0.1446441E+01  0.2278165E+05 -0.1620878E-06  0.2791863E-01 -0.7878396E-01  0.5614698E+06  0.1570796E+01  0.1582428E+01 -0.1492959E+01
  0.1900000E+01  0.9272506E+06 -0.1570796E+01  0.9765625E-02  0.3141593E+01  0.2457569E+05  0.1713655E-06  0.1416857E-01 -0.3107124E+01  0.2191156E+06  0.1570796E+01  0.1677983E+00 -0.2446854E+01
  0.1950000E+01  0.9980941E+06 -0.1570796E+01  0.9959023E-02  0.1973956E+00  0.2169692E+05 -0.1490932E-06  0.5404283E-02 -0.3217506E+00  0.7624821E+05 -0.1570799E+01  0.2197613E+00  0.2705771E+01
  0.2000000E+01  0.9131488E+06 -0.1570796E+01  0.1684026E-01 -0.4179943E+00  0.1621395E+05  0.2522122E-06  0.1010858E-01 -0.7251905E-01  0.2770591E+06 -0.1570796E+01  0.1128691E+01 -0.1462432E+01
  0.2050000E+01  0.6890941E+06 -0.1570796E+01  0.5097806E-02 -0.1862253E+01  0.9951902E+04  0.3342493E-06  0.1859320E-02 -0.4048918E+00  0.3554654E+06 -0.1570797E+01  0.1096971E+00  0.9753864E+00
  0.2100000E+01  0.3656774E+06 -0.1570796E+01  0.2987707E-01  0.1973956E+00  0.4276933E+04  0.1741035E-05  0.1246433E-01 -0.1474372E+00  0.3079947E+06 -0.1570796E+01  0.1189724E+00  0.8434723E+00
  0.2150000E+01  0.5992906E+03 -0.1570800E+01  0.1025391E-01  0.1570796E+01  0.5646610E+01  0.1057948E-02  0.5124046E-02  0.1354711E+01  0.1568190E+06 -0.1570796E+01  0.2099938E+00  0.1533584E+01
  0.2200000E+01  0.3396397E+06  0.1570796E+01  0.1332748E-01  0.4964228E+00  0.2571129E+04 -0.3141593E+01  0.1516082E-02  0.2270689E+01  0.5357246E+05  0.1570795E+01  0.1025914E+00  0.1742987E+01
  0.2250000E+01  0.5917492E+06  0.1570796E+01  0.1270470E-01 -0.3103150E+01  0.3579799E+04  0.3141593E+01  0.1798964E-01  0.3032809E+01  0.2647287E+06  0.1570796E+01  0.4902463E+00  0.1250621E+01
  0.2300000E+01  0.7084189E+06  0.1570796E+01  0.1468095E-01 -0.6656817E-01  0.3409214E+04  0.3141593E+01  0.2490504E-02 -0.1272297E+01  0.4167796E+06  0.1570796E+01  0.1239487E+00 -0.2631242E+01
  0.2350000E+01  0.6691858E+06  0.1570796E+01  0.2514648E-01  0.0000000E+00  0.2550153E+04 -0.3141593E+01  0.3702269E-01 -0.3297773E-01  0.4629845E+06  0.1570796E+01  0.4924757E+00  0.1605009E+01
  0.2400000E+01  0.4865574E+06  0.1570796E+01  0.1708984E-01  0.0000000E+00  0.1461543E+04 -0.3141593E+01  0.1000363E-01  0.3098871E+01  0.3828802E+06  0.1570796E+01  0.1113788E+01 -0.1565097E+01
  0.2450000E+01  0.2052332E+06  0.1570796E+01  0.5940198E-02  0.1405648E+01  0.4836976E+03 -0.3141587E+01  0.4419257E-02 -0.2911688E+01  0.1901887E+06  0.1570796E+01  0.2585468E+00  0.1567019E+01
  0.2500000E+01  0.1064662E+06 -0.1570797E+01  0.1968325E-02 -0.3017238E+01  0.1959635E+03 -0.3805675E-05  0.4887823E-02 -0.3755789E+00  0.6771205E+05 -0.1570797E+01  0.3935480E+00 -0.1496284E+01
  0.2550000E+01  0.3719219E+06 -0.1570796E+01  0.1817987E-01  0.2580072E+00  0.5321447E+03 -0.1173848E-05  0.2072892E-01  0.3017238E+01  0.3201714E+06 -0.1570796E+01  0.6396754E+00 -0.1649500E+01
  0.2600000E+01  0.5252002E+06 -0.1570796E+01  0.8052940E-02  0.2896614E+01  0.5814313E+03 -0.1159634E-05  0.5582486E-02 -0.2921145E+01  0.4920618E+06 -0.1570796E+01  0.1373742E+01  0.1602613E+01
  0.2650000E+01  0.5290141E+06 -0.1570796E+01  0.9814331E-02  0.9966865E-01  0.4510375E+03 -0.7865573E-06  0.3157589E-01 -0.3053044E+01  0.5265568E+06 -0.1570796E+01  0.1426221E+00 -0.1595620E+01
  0.2700000E+01  0.3864026E+06 -0.1570796E+01  0.1464844E-02  0.3141593E+01  0.2525430E+03 -0.7174942E-06  0.2082127E-02  0.1066990E+01  0.4051641E+06 -0.1570796E+01  0.3778518E+00  0.1471128E+01
  0.2750000E+01  0.1418613E+06 -0.1570796E+01  0.5459150E-02 -0.2961739E+01  0.7074369E+02 -0.4516034E-06  0.1582070E-02 -0.1135189E+01  0.1578582E+06 -0.1570796E+01  0.1163053E+00 -0.2284887E+01
  0.2800000E+01  0.1298011E+06  0.1570796E+01  0.5904974E-02 -0.3017238E+01  0.4916080E+02  0.3141589E+01  0.1182543E-01 -0.2876897E+01  0.1418336E+06  0.1570796E+01  0.4140505E+00  0.1629794E+01
  0.2850000E+01  0.3449299E+06  0.1570796E+01  0.5823663E-02  0.2565217E+01  0.9875743E+02  0.3141591E+01  0.1271893E-01  0.7820958E-01  0.3975081E+06  0.1570796E+01  0.8820522E+00 -0.1548652E+01
  0.2900000E+01  0.4371008E+06  0.1570796E+01  0.1091830E-02 -0.1107149E+01  0.9416947E+02 -0.3141592E+01  0.1208753E-01 -0.2514848E+00  0.5213672E+06  0.1570796E+01  0.3363179E+00 -0.1618362E+01
  0.2950000E+01  0.3796178E+06  0.1570796E+01  0.2595250E-02  0.8519663E+00  0.6125782E+02 -0.3141593E+01  0.1894761E-01 -0.8053149E-03  0.4665237E+06  0.1570796E+01  0.1791994E+00  0.1569434E+01
  0.3000000E+01  0.1961768E+06  0.1570796E+01  0.2013235E-02 -0.1815775E+01  0.2360201E+02  0.3141592E+01  0.8500233E-02  0.3135983E+01  0.2479298E+06  0.1570796E+01  0.1019853E-01 -0.8362018E+00
  0.3050000E+01  0.4544142E+05 -0.1570796E+01  0.1760523E-02 -0.9827937E+00  0.4057319E+01 -0.6096619E-05  0.6621728E-02  0.1394325E+00  0.5790993E+05 -0.1570796E+01  0.9461199E-01  0.1710595E+01
  0.3100000E+01  0.2562230E+06 -0.1570796E+01  0.9780217E-02 -0.3086960E+01  0.1690142E+02 -0.1314322E-05  0.3161116E-01  0.3131446E+01  0.3374348E+06 -0.1570796E+01  0.2592079E+00  0.1398525E+01
  0.3150000E+01  0.3584000E+06 -0.1570796E+01  0.4171877E-02  0.2782822E+01  0.1738617E+02 -0.5450963E-06  0.2012606E-01  0.4740279E-01  0.4821482E+06 -0.1570796E+01  0.2580163E-01 -0.1137920E+00
  0.3200000E+01  0.3158033E+06 -0.1570796E+01  0.9765625E-03  0.0000000E+00  0.1121531E+02  0.3348184E-06  0.1191581E-01  0.1160498E-02  0.4330886E+06 -0.1570796E+01  0.1324235E+00 -0.1532070E+01
  0.3250000E+01  0.1496382E+06 -0.1570796E+01  0.7324219E-03  0.0000000E+00  0.3872873E+01  0.2131555E-05  0.6292052E-02  0.3137008E+01  0.2089319E+06 -0.1570796E+01  0.6823763E-01  0.1936686E+01
  0.3300000E+01  0.6837734E+05  0.1570797E+01  0.4882812E-02  0.3141593E+01  0.1283914E+01  0.3141584E+01  0.2125014E-02  0.1464213E-01  0.9684001E+05  0.1570796E+01  0.2683363E+00 -0.1508888E+01
  0.3350000E+01  0.2447284E+06  0.1570796E+01  0.3918153E-02 -0.7796663E-01  0.3318937E+01 -0.3141593E+01  0.2638346E-02 -0.2737785E+01  0.3522493E+06  0.1570796E+01  0.4284108E+00  0.1541158E+01
  0.3400000E+01  0.3041109E+06  0.1570796E+01  0.1464844E-02  0.3141593E+01  0.2965501E+01  0.3141592E+01  0.1007617E-01  0.3076013E-03  0.4439805E+06  0.1570796E+01  0.2182617E+00 -0.1570674E+01
  0.3450000E+01  0.2236042E+06  0.1570796E+01  0.9841623E-03  0.1695151E+01  0.1560873E+01 -0.3141591E+01  0.3165187E-02 -0.2826082E+01  0.3307736E+06  0.1570796E+01  0.5913245E-01  0.1529498E+01
  0.3500000E+01  0.4459960E+05  0.1570796E+01  0.1464844E-02  0.1570796E+01  0.2218798E+00 -0.3141582E+01  0.1082570E-02  0.1114585E+01  0.6680808E+05  0.1570797E+01  0.3739025E-01 -0.2834813E+01
  0.3550000E+01  0.1451724E+06 -0.1570796E+01  0.1544081E-02  0.1892547E+01  0.5124483E+00 -0.5641204E-05  0.4779625E-02 -0.1037635E+00  0.2198456E+06 -0.1570796E+01  0.1999512E+00 -0.1570796E+01
  0.3600000E+01  0.2531814E+06 -0.1570796E+01  0.2085938E-02 -0.3587707E+00  0.6313668E+00 -0.1927942E-05  0.7193994E-02 -0.1365625E+00  0.3875400E+06 -0.1570796E+01  0.1517059E+00  0.1637632E+01
  0.3650000E+01  0.2281960E+06 -0.1570796E+01  0.4882812E-03  0.3141593E+01  0.4002615E+00 -0.1312307E-05  0.7646963E-02 -0.3141431E+01  0.3527961E+06 -0.1570796E+01  0.4029800E-01  0.1085472E+01
  0.3700000E+01  0.8740918E+05 -0.1570796E+01  0.1091830E-02 -0.1107149E+01  0.1073736E+00  0.4163358E-05  0.2971700E-02  0.2806256E+01  0.1364044E+06 -0.1570796E+01  0.5852861E-01  0.2019520E+01
  0.3750000E+01  0.9126557E+05  0.1570796E+01  0.6905340E-03  0.7853982E+00  0.7817586E-01  0.3141590E+01  0.1103513E-02  0.3141208E+01  0.1436586E+06  0.1570796E+01  0.1470531E+00  0.1504339E+01
  0.3800000E+01  0.2101427E+06  0.1570796E+01  0.2468719E-02  0.1488899E+00  0.1249814E+00  0.3141589E+01  0.1860184E-01 -0.6507719E-02  0.3334969E+06  0.1570796E+01  0.6104617E+00  0.1589794E+01
  0.3850000E+01  0.2055070E+06  0.1570796E+01  0.0000000E+00  0.0000000E+00  0.8450224E-01  0.3141592E+01  0.1597299E-01 -0.3080429E+01  0.3286429E+06  0.1570796E+01  0.2988450E+00 -0.1581417E+01
  0.3900000E+01  0.8430986E+05  0.1570796E+01  0.1078204E-02  0.2671616E+01  0.2386671E-01 -0.3141583E+01  0.1490480E-02 -0.3799073E-03  0.1357959E+06  0.1570796E+01  0.9450261E-01 -0.1591465E+01
  0.3950000E+01  0.7885883E+05 -0.1570796E+01  0.9765625E-03  0.3141593E+01  0.1530397E-01 -0.9462949E-05  0.1263757E-02  0.2258920E+01  0.1278694E+06 -0.1570796E+01  0.7385416E-01  0.1577408E+01
  0.4000000E+01  0.1853275E+06 -0.1570796E+01  0.1954139E-02  0.3221541E-01  0.2455348E-01 -0.3379970E-05  0.3172196E-02  0.2886369E+01  0.3024059E+06 -0.1570796E+01  0.1246438E+00  0.1616842E+01
  0.4050000E+01  0.1722525E+06 -0.1570796E+01  0.2929688E-02  0.0000000E+00  0.1551501E-01 -0.4014319E-06  0.1251553E-02 -0.3141572E+01  0.2827337E+06 -0.1570796E+01  0.9322208E-02  0.7853982E+00
  0.4100000E+01  0.5224504E+05 -0.1570796E+01  0.1748047E-02  0.2830958E+00  0.3186065E-02  0.1757521E-04  0.2728908E-02  0.2775567E+01  0.8623013E+05 -0.1570796E+01  0.6681708E-01  0.1534250E+01
  0.4150000E+01  0.9399949E+05  0.1570796E+01  0.4882812E-03  0.0000000E+00  0.3865215E-02  0.3141580E+01  0.5908697E-03  0.2194844E-03  0.1559519E+06  0.1570796E+01  0.3501080E+00 -0.1578467E+01
  0.4200000E+01  0.1699135E+06  0.1570796E+01  0.4409763E-02 -0.3058451E+01  0.4691946E-02  0.3141586E+01  0.3016481E-02  0.2917115E+01  0.2832736E+06  0.1570796E+01  0.5421987E-01  0.1356401E+01
  0.4250000E+01  0.1275156E+06  0.1570796E+01  0.4882812E-03  0.0000000E+00  0.2355107E-02 -0.3141590E+01  0.1517170E-02  0.3276576E+00  0.2135614E+06  0.1570796E+01  0.5432280E-01 -0.1503331E+01
  0.4300000E+01  0.4618549E+03  0.1570799E+01  0.5758045E-03  0.1012197E+01  0.5694166E-05 -0.3138850E+01  0.5025173E-03 -0.3141519E+01  0.7768652E+03  0.1570769E+01  0.2775913E-01 -0.1518002E+01
  0.4350000E+01  0.1191284E+06 -0.1570796E+01  0.1544081E-02 -0.2819842E+01  0.9725319E-03 -0.1318981E-04  0.5849295E-02 -0.5483126E-05  0.2011759E+06 -0.1570796E+01  0.2138840E+00 -0.1583353E+01
  0.4400000E+01  0.1462579E+06 -0.1570796E+01  0.5033088E-03  0.2449787E+00  0.7891601E-03 -0.6483877E-05  0.3894135E-02  0.3078860E+01  0.2479213E+06 -0.1570796E+01  0.2386341E+00  0.1540611E+01
  0.4450000E+01  0.6501045E+05 -0.1570796E+01  0.9841623E-03  0.2622447E+01  0.2309426E-03  0.5214157E-05  0.2941464E-02  0.3384226E+00  0.1105884E+06 -0.1570796E+01  0.4574380E-01 -0.1667013E+01
  0.4500000E+01  0.5958419E+05  0.1570796E+01  0.2441406E-02  0.3141593E+01  0.1388176E-03  0.3141571E+01  0.4497436E-02  0.3141591E+01  0.1016935E+06  0.1570796E+01  0.2893865E-01 -0.1409809E+01
  0.4550000E+01  0.1310379E+06  0.1570796E+01  0.1954078E-02  0.3123983E-01  0.1994624E-03  0.3141582E+01  0.1514759E-01 -0.3133534E+01  0.2243393E+06  0.1570796E+01  0.8623143E-01  0.1604778E+01
  0.4600000E+01  0.9629755E+05  0.1570796E+01  0.1244878E-02  0.2944197E+01  0.9540922E-04  0.3141588E+01  0.4644290E-02  0.2483134E-06  0.1653424E+06  0.1570796E+01  0.4365477E-01 -0.1666013E+01
  0.4650000E+01  0.1244823E+05 -0.1570797E+01  0.4904223E-03  0.1664273E+01  0.7998497E-05 -0.9506005E-04  0.3080185E-02 -0.1591955E+00  0.2143180E+05 -0.1570796E+01  0.2086447E-01  0.1641062E+01
  0.4700000E+01  0.1041506E+06 -0.1570796E+01  0.2441406E-03  0.1570796E+01  0.4323835E-04 -0.2014574E-04  0.2333309E-02 -0.3141592E+01  0.1797707E+06 -0.1570796E+01  0.2100177E-02 -0.6202495E+00
  0.4750000E+01  0.1041755E+06 -0.1570796E+01  0.2685547E-02  0.0000000E+00  0.2784368E-04 -0.1567479E-04  0.2538713E-03 -0.1293048E+01  0.1802427E+06 -0.1570796E+01  0.4771451E-01 -0.1758659E+01
  0.4800000E+01  0.1677800E+05 -0.1570796E+01  0.3662109E-03  0.0000000E+00  0.2876631E-05 -0.5200940E-04  0.2513322E-03 -0.1472809E-05  0.2909390E+05 -0.1570796E+01  0.4794824E-01  0.1672808E+01
  0.4850000E+01  0.7921563E+05  0.1570796E+01  0.7324219E-03  0.3141593E+01  0.8683966E-05  0.3141578E+01  0.2991515E-02 -0.2977637E+01  0.1376508E+06  0.1570796E+01  0.6163040E-02  0.1390959E+00
  0.4900000E+01  0.9980730E+05  0.1570796E+01  0.3683127E-02 -0.3034710E+01  0.6971058E-05  0.3141577E+01  0.2460833E-02 -0.3101278E+01  0.1737714E+06  0.1570796E+01  0.9377719E-01 -0.1594880E+01
  0.4950000E+01  0.3042194E+05  0.1570796E+01  0.1125433E-02 -0.2922924E+01  0.1349293E-05  0.3141564E+01  0.7357954E-03  0.3141593E+01  0.5306346E+05  0.1570796E+01  0.5508063E-02  0.1794273E+01
  0.5000000E+01  0.6178559E+05 -0.1570796E+01  0.1125433E-02  0.2186690E+00  0.1734575E-05 -0.5407182E-06  0.9808994E-03 -0.4288323E-08  0.1079531E+06 -0.1570796E+01  0.6889839E-01 -0.1432157E+01
