 VARIABLES="Time (s)"
"AddedMass    1" "IRF    1"
"AddedMass    2" "IRF    2"
"AddedMass    3" "IRF    3"
"AddedMass    4" "IRF    4"
"AddedMass    5" "IRF    5"
"AddedMass    6" "IRF    6"
Zone t="DoF    1",I=   100,F=POINT
  0.0000000E+00  0.1325968E+07  0.2070448E+07 -0.1905694E-03 -0.1755920E-02  0.3171398E-01 -0.9416672E-02 -0.2467188E-02  0.1142433E-05  0.1141358E+07  0.2921162E+07  0.5185030E-01  0.2190047E+00
  0.1000000E+00  0.1325968E+07  0.2039480E+07 -0.1905694E-03 -0.1751589E-02  0.3171398E-01 -0.9493374E-02 -0.2467188E-02 -0.9743046E-05  0.1141358E+07  0.2888842E+07  0.5185030E-01  0.2174859E+00
  0.2000000E+00  0.1325968E+07  0.1948580E+07 -0.1905694E-03 -0.1738765E-02  0.3171398E-01 -0.9721154E-02 -0.2467188E-02 -0.4208016E-04  0.1141358E+07  0.2794480E+07  0.5185030E-01  0.2129083E+00
  0.3000000E+00  0.1325968E+07  0.1803540E+07 -0.1905694E-03 -0.1717917E-02  0.3171398E-01 -0.1009415E-01 -0.2467188E-02 -0.9491642E-04  0.1141358E+07  0.2645524E+07  0.5185030E-01  0.2052010E+00
  0.4000000E+00  0.1325968E+07  0.1613304E+07 -0.1905694E-03 -0.1689693E-02  0.3171398E-01 -0.1060617E-01 -0.2467188E-02 -0.1666691E-03  0.1141358E+07  0.2453300E+07  0.5185030E-01  0.1942283E+00
  0.5000000E+00  0.1325968E+07  0.1389023E+07 -0.1905694E-03 -0.1654758E-02  0.3171398E-01 -0.1125529E-01 -0.2467188E-02 -0.2551422E-03  0.1141358E+07  0.2231534E+07  0.5185030E-01  0.1797753E+00
  0.6000000E+00  0.1325968E+07  0.1142917E+07 -0.1905694E-03 -0.1613622E-02  0.3171398E-01 -0.1204805E-01 -0.2467188E-02 -0.3575614E-03  0.1141358E+07  0.1994643E+07  0.5185030E-01  0.1615472E+00
  0.7000000E+00  0.1325968E+07  0.8871188E+06 -0.1905694E-03 -0.1566507E-02  0.3171398E-01 -0.1300279E-01 -0.2467188E-02 -0.4706379E-03  0.1141358E+07  0.1756032E+07  0.5185030E-01  0.1391933E+00
  0.8000000E+00  0.1325968E+07  0.6326269E+06 -0.1905694E-03 -0.1513281E-02  0.3171398E-01 -0.1415037E-01 -0.2467188E-02 -0.5906617E-03  0.1141358E+07  0.1526639E+07  0.5185030E-01  0.1123626E+00
  0.9000000E+00  0.1325968E+07  0.3885257E+06 -0.1905694E-03 -0.1453477E-02  0.3171398E-01 -0.1553194E-01 -0.2467188E-02 -0.7136392E-03  0.1141358E+07  0.1313949E+07  0.5185030E-01  0.8078919E-01
  0.1000000E+01  0.1325968E+07  0.1615208E+06 -0.1905694E-03 -0.1386413E-02  0.3171398E-01 -0.1719375E-01 -0.2467188E-02 -0.8354587E-03  0.1141358E+07  0.1121581E+07  0.5185030E-01  0.4439406E-01
  0.1100000E+01  0.1325968E+07 -0.4416890E+05 -0.1905694E-03 -0.1311350E-02  0.3171398E-01 -0.1917944E-01 -0.2467188E-02 -0.9520866E-03  0.1141358E+07  0.9494572E+06  0.5185030E-01  0.3386924E-02
  0.1200000E+01  0.1325968E+07 -0.2265985E+06 -0.1905694E-03 -0.1227708E-02  0.3171398E-01 -0.2152124E-01 -0.2467188E-02 -0.1059768E-02  0.1141358E+07  0.7944803E+06  0.5185030E-01 -0.4165593E-01
  0.1300000E+01  0.1325968E+07 -0.3856446E+06 -0.1905694E-03 -0.1135229E-02  0.3171398E-01 -0.2423127E-01 -0.2467188E-02 -0.1155211E-02  0.1141358E+07  0.6515713E+06  0.5185030E-01 -0.8975805E-01
  0.1400000E+01  0.1325968E+07 -0.5224152E+06 -0.1905694E-03 -0.1034105E-02  0.3171398E-01 -0.2729447E-01 -0.2467188E-02 -0.1235736E-02  0.1141358E+07  0.5148519E+06  0.5185030E-01 -0.1395659E+00
  0.1500000E+01  0.1325968E+07 -0.6386379E+06 -0.1905694E-03 -0.9249958E-03  0.3171398E-01 -0.3066463E-01 -0.2467188E-02 -0.1299358E-02  0.1141358E+07  0.3787756E+06  0.5185030E-01 -0.1894330E+00
  0.1600000E+01  0.1325968E+07 -0.7361289E+06 -0.1905694E-03 -0.8089640E-03  0.3171398E-01 -0.3426379E-01 -0.2467188E-02 -0.1344785E-02  0.1141358E+07  0.2390312E+06  0.5185030E-01 -0.2375527E+00
  0.1700000E+01  0.1325968E+07 -0.8164146E+06 -0.1905694E-03 -0.6873081E-03  0.3171398E-01 -0.3798561E-01 -0.2467188E-02 -0.1371338E-02  0.1141358E+07  0.9309562E+05  0.5185030E-01 -0.2821208E+00
  0.1800000E+01  0.1325968E+07 -0.8805488E+06 -0.1905694E-03 -0.5613496E-03  0.3171398E-01 -0.4170163E-01 -0.2467188E-02 -0.1378781E-02  0.1141358E+07 -0.5959840E+05  0.5185030E-01 -0.3214984E+00
  0.1900000E+01  0.1325968E+07 -0.9291072E+06 -0.1905694E-03 -0.4322090E-03  0.3171398E-01 -0.4526981E-01 -0.2467188E-02 -0.1367099E-02  0.1141358E+07 -0.2178593E+06  0.5185030E-01 -0.3543473E+00
  0.2000000E+01  0.1325968E+07 -0.9623366E+06 -0.1905694E-03 -0.3006199E-03  0.3171398E-01 -0.4854367E-01 -0.2467188E-02 -0.1336256E-02  0.1141358E+07 -0.3791989E+06  0.5185030E-01 -0.3797130E+00
  0.2100000E+01  0.1325968E+07 -0.9803846E+06 -0.1905694E-03 -0.1668265E-03  0.3171398E-01 -0.5138094E-01 -0.2467188E-02 -0.1285957E-02  0.1141358E+07 -0.5404341E+06  0.5185030E-01 -0.3970437E+00
  0.2200000E+01  0.1325968E+07 -0.9835459E+06 -0.1905694E-03 -0.3058674E-04  0.3171398E-01 -0.5365051E-01 -0.2467188E-02 -0.1215494E-02  0.1141358E+07 -0.6982955E+06  0.5185030E-01 -0.4061490E+00
  0.2300000E+01  0.1325968E+07 -0.9724652E+06 -0.1905694E-03  0.1087176E-03  0.3171398E-01 -0.5523703E-01 -0.2467188E-02 -0.1123680E-02  0.1141358E+07 -0.8499188E+06  0.5185030E-01 -0.4071080E+00
  0.2400000E+01  0.1325968E+07 -0.9482439E+06 -0.1905694E-03  0.2518811E-03  0.3171398E-01 -0.5604353E-01 -0.2467188E-02 -0.1008914E-02  0.1141358E+07 -0.9931486E+06  0.5185030E-01 -0.4001583E+00
  0.2500000E+01  0.1325968E+07 -0.9124434E+06 -0.1905694E-03  0.3996205E-03  0.3171398E-01 -0.5599184E-01 -0.2467188E-02 -0.8693787E-03  0.1141358E+07 -0.1126617E+07  0.5185030E-01 -0.3855934E+00
  0.2600000E+01  0.1325968E+07 -0.8669821E+06 -0.1905694E-03  0.5523250E-03  0.3171398E-01 -0.5502214E-01 -0.2467188E-02 -0.7033416E-03  0.1141358E+07 -0.1249637E+07  0.5185030E-01 -0.3636935E+00
  0.2700000E+01  0.1325968E+07 -0.8139632E+06 -0.1905694E-03  0.7098432E-03  0.3171398E-01 -0.5309282E-01 -0.2467188E-02 -0.5095344E-03  0.1141358E+07 -0.1361949E+07  0.5185030E-01 -0.3347118E+00
  0.2800000E+01  0.1325968E+07 -0.7554732E+06 -0.1905694E-03  0.8713620E-03  0.3171398E-01 -0.5018071E-01 -0.2467188E-02 -0.2875439E-03  0.1141358E+07 -0.1463428E+07  0.5185030E-01 -0.2989150E+00
  0.2900000E+01  0.1325968E+07 -0.6933923E+06 -0.1905694E-03  0.1035385E-02  0.3171398E-01 -0.4628296E-01 -0.2467188E-02 -0.3815722E-04  0.1141358E+07 -0.1553814E+07  0.5185030E-01 -0.2566718E+00
  0.3000000E+01  0.1325968E+07 -0.6292628E+06 -0.1905694E-03  0.1199815E-02  0.3171398E-01 -0.4142016E-01 -0.2467188E-02  0.2364000E-03  0.1141358E+07 -0.1632544E+07  0.5185030E-01 -0.2085592E+00
  0.3100000E+01  0.1325968E+07 -0.5642254E+06 -0.1905694E-03  0.1362121E-02  0.3171398E-01 -0.3564005E-01 -0.2467188E-02  0.5323741E-03  0.1141358E+07 -0.1698716E+07  0.5185030E-01 -0.1554586E+00
  0.3200000E+01  0.1325968E+07 -0.4990413E+06 -0.1905694E-03  0.1519553E-02  0.3171398E-01 -0.2902156E-01 -0.2467188E-02  0.8445692E-03  0.1141358E+07 -0.1751173E+07  0.5185030E-01 -0.9861245E-01
  0.3300000E+01  0.1325968E+07 -0.4341724E+06 -0.1905694E-03  0.1669353E-02  0.3171398E-01 -0.2167693E-01 -0.2467188E-02  0.1166588E-02  0.1141358E+07 -0.1788701E+07  0.5185030E-01 -0.3961112E-01
  0.3400000E+01  0.1325968E+07 -0.3699055E+06 -0.1905694E-03  0.1808939E-02  0.3171398E-01 -0.1375179E-01 -0.2467188E-02  0.1491223E-02  0.1141358E+07 -0.1810261E+07  0.5185030E-01  0.1969127E-01
  0.3500000E+01  0.1325968E+07 -0.3064796E+06 -0.1905694E-03  0.1936023E-02  0.3171398E-01 -0.5422154E-02 -0.2467188E-02  0.1810901E-02  0.1141358E+07 -0.1815200E+07  0.5185030E-01  0.7732826E-01
  0.3600000E+01  0.1325968E+07 -0.2441919E+06 -0.1905694E-03  0.2048652E-02  0.3171398E-01  0.3112405E-02 -0.2467188E-02  0.2118176E-02  0.1141358E+07 -0.1803412E+07  0.5185030E-01  0.1314154E+00
  0.3700000E+01  0.1325968E+07 -0.1834573E+06 -0.1905694E-03  0.2145191E-02  0.3171398E-01  0.1163813E-01 -0.2467188E-02  0.2406125E-02  0.1141358E+07 -0.1775373E+07  0.5185030E-01  0.1803490E+00
  0.3800000E+01  0.1325968E+07 -0.1248178E+06 -0.1905694E-03  0.2224253E-02  0.3171398E-01  0.1993892E-01 -0.2467188E-02  0.2668680E-02  0.1141358E+07 -0.1732094E+07  0.5185030E-01  0.2229734E+00
  0.3900000E+01  0.1325968E+07 -0.6890012E+05 -0.1905694E-03  0.2284630E-02  0.3171398E-01  0.2780868E-01 -0.2467188E-02  0.2900809E-02  0.1141358E+07 -0.1674972E+07  0.5185030E-01  0.2586786E+00
  0.4000000E+01  0.1325968E+07 -0.1634513E+05 -0.1905694E-03  0.2325232E-02  0.3171398E-01  0.3506275E-01 -0.2467188E-02  0.3098530E-02  0.1141358E+07 -0.1605600E+07  0.5185030E-01  0.2874092E+00
  0.4100000E+01  0.1325968E+07  0.3227593E+05 -0.1905694E-03  0.2345094E-02  0.3171398E-01  0.4154730E-01 -0.2467188E-02  0.3258857E-02  0.1141358E+07 -0.1525571E+07  0.5185030E-01  0.3095810E+00
  0.4200000E+01  0.1325968E+07  0.7653056E+05 -0.1905694E-03  0.2343412E-02  0.3171398E-01  0.4714505E-01 -0.2467188E-02  0.3379604E-02  0.1141358E+07 -0.1436332E+07  0.5185030E-01  0.3259216E+00
  0.4300000E+01  0.1325968E+07  0.1161632E+06 -0.1905694E-03  0.2319654E-02  0.3171398E-01  0.5177745E-01 -0.2467188E-02  0.3459201E-02  0.1141358E+07 -0.1339104E+07  0.5185030E-01  0.3372657E+00
  0.4400000E+01  0.1325968E+07  0.1510976E+06 -0.1905694E-03  0.2273684E-02  0.3171398E-01  0.5540324E-01 -0.2467188E-02  0.3496518E-02  0.1141358E+07 -0.1234882E+07  0.5185030E-01  0.3443535E+00
  0.4500000E+01  0.1325968E+07  0.1814006E+06 -0.1905694E-03  0.2205883E-02  0.3171398E-01  0.5801419E-01 -0.2467188E-02  0.3490755E-02  0.1141358E+07 -0.1124523E+07  0.5185030E-01  0.3476712E+00
  0.4600000E+01  0.1325968E+07  0.2072198E+06 -0.1905694E-03  0.2117235E-02  0.3171398E-01  0.5962926E-01 -0.2467188E-02  0.3441409E-02  0.1141358E+07 -0.1008857E+07  0.5185030E-01  0.3473681E+00
  0.4700000E+01  0.1325968E+07  0.2287173E+06 -0.1905694E-03  0.2009338E-02  0.3171398E-01  0.6028861E-01 -0.2467188E-02  0.3348340E-02  0.1141358E+07 -0.8888151E+06  0.5185030E-01  0.3432758E+00
  0.4800000E+01  0.1325968E+07  0.2460096E+06 -0.1905694E-03  0.1884341E-02  0.3171398E-01  0.6004813E-01 -0.2467188E-02  0.3211883E-02  0.1141358E+07 -0.7655239E+06  0.5185030E-01  0.3350160E+00
  0.4900000E+01  0.1325968E+07  0.2591370E+06 -0.1905694E-03  0.1744797E-02  0.3171398E-01  0.5897633E-01 -0.2467188E-02  0.3033008E-02  0.1141358E+07 -0.6403360E+06  0.5185030E-01  0.3221840E+00
  0.5000000E+01  0.1325968E+07  0.2680649E+06 -0.1905694E-03  0.1593461E-02  0.3171398E-01  0.5715253E-01 -0.2467188E-02  0.2813431E-02  0.1141358E+07 -0.5147923E+06  0.5185030E-01  0.3045612E+00
  0.5100000E+01  0.1325968E+07  0.2727204E+06 -0.1905694E-03  0.1433061E-02  0.3171398E-01  0.5466695E-01 -0.2467188E-02  0.2555719E-02  0.1141358E+07 -0.3905209E+06  0.5185030E-01  0.2823131E+00
  0.5200000E+01  0.1325968E+07  0.2730515E+06 -0.1905694E-03  0.1266088E-02  0.3171398E-01  0.5162169E-01 -0.2467188E-02  0.2263262E-02  0.1141358E+07 -0.2690963E+06  0.5185030E-01  0.2561247E+00
  0.5300000E+01  0.1325968E+07  0.2690940E+06 -0.1905694E-03  0.1094655E-02  0.3171398E-01  0.4813107E-01 -0.2467188E-02  0.1940210E-02  0.1141358E+07 -0.1518910E+06  0.5185030E-01  0.2272407E+00
  0.5400000E+01  0.1325968E+07  0.2610324E+06 -0.1905694E-03  0.9204083E-03  0.3171398E-01  0.4432131E-01 -0.2467188E-02  0.1591298E-02  0.1141358E+07 -0.3995683E+05  0.5185030E-01  0.1973943E+00
  0.5500000E+01  0.1325968E+07  0.2492332E+06 -0.1905694E-03  0.7445612E-03  0.3171398E-01  0.4032784E-01 -0.2467188E-02  0.1221649E-02  0.1141358E+07  0.6603640E+05  0.5185030E-01  0.1686307E+00
  0.5600000E+01  0.1325968E+07  0.2342462E+06 -0.1905694E-03  0.5679873E-03  0.3171398E-01  0.3629050E-01 -0.2467188E-02  0.8365607E-03  0.1141358E+07  0.1657921E+06  0.5185030E-01  0.1430529E+00
  0.5700000E+01  0.1325968E+07  0.2167702E+06 -0.1905694E-03  0.3913800E-03  0.3171398E-01  0.3234714E-01 -0.2467188E-02  0.4413124E-03  0.1141358E+07  0.2593088E+06  0.5185030E-01  0.1225339E+00
  0.5800000E+01  0.1325968E+07  0.1975882E+06 -0.1905694E-03  0.2154173E-03  0.3171398E-01  0.2862605E-01 -0.2467188E-02  0.4103862E-04  0.1141358E+07  0.3467508E+06  0.5185030E-01  0.1084434E+00
  0.5900000E+01  0.1325968E+07  0.1774862E+06 -0.1905694E-03  0.4090645E-04  0.3171398E-01  0.2523838E-01 -0.2467188E-02 -0.3593542E-03  0.1141358E+07  0.4283041E+06  0.5185030E-01  0.1014360E+00
  0.6000000E+01  0.1325968E+07  0.1571751E+06 -0.1905694E-03 -0.1311384E-03  0.3171398E-01  0.2227245E-01 -0.2467188E-02 -0.7551981E-03  0.1141358E+07  0.5040425E+06  0.5185030E-01  0.1013395E+00
  0.6100000E+01  0.1325968E+07  0.1372248E+06 -0.1905694E-03 -0.2994965E-03  0.3171398E-01  0.1979008E-01 -0.2467188E-02 -0.1142044E-02  0.1141358E+07  0.5738392E+06  0.5185030E-01  0.1071583E+00
  0.6200000E+01  0.1325968E+07  0.1180314E+06 -0.1905694E-03 -0.4628231E-03  0.3171398E-01  0.1782627E-01 -0.2467188E-02 -0.1515633E-02  0.1141358E+07  0.6373438E+06  0.5185030E-01  0.1171896E+00
  0.6300000E+01  0.1325968E+07  0.9981523E+05 -0.1905694E-03 -0.6197951E-03  0.3171398E-01  0.1639195E-01 -0.2467188E-02 -0.1871887E-02  0.1141358E+07  0.6940194E+06  0.5185030E-01  0.1292326E+00
  0.6400000E+01  0.1325968E+07  0.8265123E+05 -0.1905694E-03 -0.7692893E-03  0.3171398E-01  0.1547895E-01 -0.2467188E-02 -0.2206946E-02  0.1141358E+07  0.7432459E+06  0.5185030E-01  0.1408526E+00
  0.6500000E+01  0.1325968E+07  0.6652578E+05 -0.1905694E-03 -0.9105445E-03  0.3171398E-01  0.1506671E-01 -0.2467188E-02 -0.2517244E-02  0.1141358E+07  0.7844419E+06  0.5185030E-01  0.1496616E+00
  0.6600000E+01  0.1325968E+07  0.5139709E+05 -0.1905694E-03 -0.1043267E-02  0.3171398E-01  0.1512879E-01 -0.2467188E-02 -0.2799630E-02  0.1141358E+07  0.8171944E+06  0.5185030E-01  0.1535711E+00
  0.6700000E+01  0.1325968E+07  0.3725479E+05 -0.1905694E-03 -0.1167665E-02  0.3171398E-01  0.1563803E-01 -0.2467188E-02 -0.3051493E-02  0.1141358E+07  0.8413548E+06  0.5185030E-01  0.1509885E+00
  0.6800000E+01  0.1325968E+07  0.2415975E+05 -0.1905694E-03 -0.1284364E-02  0.3171398E-01  0.1656980E-01 -0.2467188E-02 -0.3270862E-02  0.1141358E+07  0.8570851E+06  0.5185030E-01  0.1409373E+00
  0.6900000E+01  0.1325968E+07  0.1225594E+05 -0.1905694E-03 -0.1394256E-02  0.3171398E-01  0.1790228E-01 -0.2467188E-02 -0.3456468E-02  0.1141358E+07  0.8648416E+06  0.5185030E-01  0.1230966E+00
  0.7000000E+01  0.1325968E+07  0.1756415E+04 -0.1905694E-03 -0.1498280E-02  0.3171398E-01  0.1961446E-01 -0.2467188E-02 -0.3607702E-02  0.1141358E+07  0.8653023E+06  0.5185030E-01  0.9777000E-01
  0.7100000E+01  0.1325968E+07 -0.7095379E+04 -0.1905694E-03 -0.1597164E-02  0.3171398E-01  0.2168238E-01 -0.2467188E-02 -0.3724489E-02  0.1141358E+07  0.8592591E+06  0.5185030E-01  0.6580184E-01
  0.7200000E+01  0.1325968E+07 -0.1407648E+05 -0.1905694E-03 -0.1691223E-02  0.3171398E-01  0.2407503E-01 -0.2467188E-02 -0.3807125E-02  0.1141358E+07  0.8474943E+06  0.5185030E-01  0.2846082E-01
  0.7300000E+01  0.1325968E+07 -0.1903617E+05 -0.1905694E-03 -0.1780186E-02  0.3171398E-01  0.2675101E-01 -0.2467188E-02 -0.3856025E-02  0.1141358E+07  0.8306741E+06  0.5185030E-01 -0.1268656E-01
  0.7400000E+01  0.1325968E+07 -0.2193652E+05 -0.1905694E-03 -0.1863148E-02  0.3171398E-01  0.2965707E-01 -0.2467188E-02 -0.3871511E-02  0.1141358E+07  0.8092840E+06  0.5185030E-01 -0.5589791E-01
  0.7500000E+01  0.1325968E+07 -0.2287115E+05 -0.1905694E-03 -0.1938603E-02  0.3171398E-01  0.3272926E-01 -0.2467188E-02 -0.3853681E-02  0.1141358E+07  0.7836065E+06  0.5185030E-01 -0.9936824E-01
  0.7600000E+01  0.1325968E+07 -0.2206040E+05 -0.1905694E-03 -0.2004591E-02  0.3171398E-01  0.3589660E-01 -0.2467188E-02 -0.3802333E-02  0.1141358E+07  0.7537629E+06  0.5185030E-01 -0.1413267E+00
  0.7700000E+01  0.1325968E+07 -0.1982238E+05 -0.1905694E-03 -0.2058899E-02  0.3171398E-01  0.3908636E-01 -0.2467188E-02 -0.3717053E-02  0.1141358E+07  0.7197831E+06  0.5185030E-01 -0.1801273E+00
  0.7800000E+01  0.1325968E+07 -0.1652895E+05 -0.1905694E-03 -0.2099314E-02  0.3171398E-01  0.4223022E-01 -0.2467188E-02 -0.3597430E-02  0.1141358E+07  0.6817049E+06  0.5185030E-01 -0.2143313E+00
  0.7900000E+01  0.1325968E+07 -0.1255364E+05 -0.1905694E-03 -0.2123842E-02  0.3171398E-01  0.4526934E-01 -0.2467188E-02 -0.3443331E-02  0.1141358E+07  0.6396644E+06  0.5185030E-01 -0.2427905E+00
  0.8000000E+01  0.1325968E+07 -0.8224606E+04 -0.1905694E-03 -0.2130904E-02  0.3171398E-01  0.4815780E-01 -0.2467188E-02 -0.3255256E-02  0.1141358E+07  0.5939613E+06  0.5185030E-01 -0.2647219E+00
  0.8100000E+01  0.1325968E+07 -0.3792164E+04 -0.1905694E-03 -0.2119448E-02  0.3171398E-01  0.5086233E-01 -0.2467188E-02 -0.3034628E-02  0.1141358E+07  0.5450841E+06  0.5185030E-01 -0.2797716E+00
  0.8200000E+01  0.1325968E+07  0.5870901E+03 -0.1905694E-03 -0.2088998E-02  0.3171398E-01  0.5335923E-01 -0.2467188E-02 -0.2784014E-02  0.1141358E+07  0.4936923E+06  0.5185030E-01 -0.2880538E+00
  0.8300000E+01  0.1325968E+07  0.4842977E+04 -0.1905694E-03 -0.2039616E-02  0.3171398E-01  0.5562887E-01 -0.2467188E-02 -0.2507185E-02  0.1141358E+07  0.4405571E+06  0.5185030E-01 -0.2901546E+00
  0.8400001E+01  0.1325968E+07  0.8969636E+04 -0.1905694E-03 -0.1971827E-02  0.3171398E-01  0.5764793E-01 -0.2467188E-02 -0.2209009E-02  0.1141358E+07  0.3864877E+06  0.5185030E-01 -0.2870899E+00
  0.8500000E+01  0.1325968E+07  0.1299400E+05 -0.1905694E-03 -0.1886520E-02  0.3171398E-01  0.5938287E-01 -0.2467188E-02 -0.1895160E-02  0.1141358E+07  0.3322479E+06  0.5185030E-01 -0.2802111E+00
  0.8600000E+01  0.1325968E+07  0.1694054E+05 -0.1905694E-03 -0.1784839E-02  0.3171398E-01  0.6078483E-01 -0.2467188E-02 -0.1571687E-02  0.1141358E+07  0.2784912E+06  0.5185030E-01 -0.2710683E+00
  0.8700000E+01  0.1325968E+07  0.2080530E+05 -0.1905694E-03 -0.1668124E-02  0.3171398E-01  0.6178822E-01 -0.2467188E-02 -0.1244576E-02  0.1141358E+07  0.2257331E+06  0.5185030E-01 -0.2612361E+00
  0.8800000E+01  0.1325968E+07  0.2453919E+05 -0.1905694E-03 -0.1537850E-02  0.3171398E-01  0.6231362E-01 -0.2467188E-02 -0.9192392E-03  0.1141358E+07  0.1743505E+06  0.5185030E-01 -0.2521294E+00
  0.8900001E+01  0.1325968E+07  0.2805074E+05 -0.1905694E-03 -0.1395639E-02  0.3171398E-01  0.6227492E-01 -0.2467188E-02 -0.6001672E-03  0.1141358E+07  0.1246214E+06  0.5185030E-01 -0.2448274E+00
  0.9000000E+01  0.1325968E+07  0.3121401E+05 -0.1905694E-03 -0.1243253E-02  0.3171398E-01  0.6158943E-01 -0.2467188E-02 -0.2907027E-03  0.1141358E+07  0.7677651E+05  0.5185030E-01 -0.2399341E+00
  0.9100000E+01  0.1325968E+07  0.3389529E+05 -0.1905694E-03 -0.1082608E-02  0.3171398E-01  0.6018969E-01 -0.2467188E-02  0.6995928E-05  0.1141358E+07  0.3105679E+05  0.5185030E-01 -0.2374921E+00
  0.9200000E+01  0.1325968E+07  0.3597362E+05 -0.1905694E-03 -0.9157710E-03  0.3171398E-01  0.5803444E-01 -0.2467188E-02  0.2917903E-03  0.1141358E+07 -0.1224210E+05  0.5185030E-01 -0.2369653E+00
  0.9300000E+01  0.1325968E+07  0.3736183E+05 -0.1905694E-03 -0.7449072E-03  0.3171398E-01  0.5511596E-01 -0.2467188E-02  0.5632645E-03  0.1141358E+07 -0.5276040E+05  0.5185030E-01 -0.2372901E+00
  0.9400001E+01  0.1325968E+07  0.3801893E+05 -0.1905694E-03 -0.5722106E-03  0.3171398E-01  0.5146392E-01 -0.2467188E-02  0.8213341E-03  0.1141358E+07 -0.9008893E+05  0.5185030E-01 -0.2369892E+00
  0.9500000E+01  0.1325968E+07  0.3794928E+05 -0.1905694E-03 -0.3997925E-03  0.3171398E-01  0.4714284E-01 -0.2467188E-02  0.1065842E-02  0.1141358E+07 -0.1238191E+06  0.5185030E-01 -0.2343347E+00
  0.9600000E+01  0.1325968E+07  0.3719372E+05 -0.1905694E-03 -0.2295567E-03  0.3171398E-01  0.4224465E-01 -0.2467188E-02  0.1296266E-02  0.1141358E+07 -0.1536082E+06  0.5185030E-01 -0.2275366E+00
  0.9700000E+01  0.1325968E+07  0.3581357E+05 -0.1905694E-03 -0.6309810E-04  0.3171398E-01  0.3687737E-01 -0.2467188E-02  0.1511496E-02  0.1141358E+07 -0.1792413E+06  0.5185030E-01 -0.2149366E+00
  0.9800000E+01  0.1325968E+07  0.3386942E+05 -0.1905694E-03  0.9839124E-04  0.3171398E-01  0.3115174E-01 -0.2467188E-02  0.1709853E-02  0.1141358E+07 -0.2006837E+06  0.5185030E-01 -0.1951877E+00
  0.9900001E+01  0.1325968E+07  0.3140882E+05 -0.1905694E-03  0.2541347E-03  0.3171398E-01  0.2516888E-01 -0.2467188E-02  0.1889226E-02  0.1141358E+07 -0.2180923E+06  0.5185030E-01 -0.1674041E+00
Zone t="DoF    2",I=   100,F=POINT
  0.0000000E+00  0.4630401E-03 -0.1911996E-03  0.2900374E+07  0.4862950E+07  0.4420499E-02  0.1142832E-01  0.4851106E+07  0.7030559E+06  0.2188949E-02 -0.2086563E-02 -0.2417303E+01 -0.3502176E+01
  0.1000000E+00  0.4630401E-03 -0.1949917E-03  0.2900374E+07  0.4798558E+07  0.4420499E-02  0.1139867E-01  0.4851106E+07  0.7341138E+06  0.2188949E-02 -0.2058611E-02 -0.2417303E+01 -0.3473618E+01
  0.2000000E+00  0.4630401E-03 -0.2059832E-03  0.2900374E+07  0.4609356E+07  0.4420499E-02  0.1131023E-01  0.4851106E+07  0.8226976E+06  0.2188949E-02 -0.1972768E-02 -0.2417303E+01 -0.3388749E+01
  0.3000000E+00  0.4630401E-03 -0.2230653E-03  0.2900374E+07  0.4306871E+07  0.4420499E-02  0.1116447E-01  0.4851106E+07  0.9556976E+06  0.2188949E-02 -0.1823529E-02 -0.2417303E+01 -0.3249985E+01
  0.4000000E+00  0.4630401E-03 -0.2445364E-03  0.2900374E+07  0.3908928E+07  0.4420499E-02  0.1096376E-01  0.4851106E+07  0.1113349E+07  0.2188949E-02 -0.1603220E-02 -0.2417303E+01 -0.3061422E+01
  0.5000000E+00  0.4630401E-03 -0.2682973E-03  0.2900374E+07  0.3437803E+07  0.4420499E-02  0.1071124E-01  0.4851106E+07  0.1272008E+07  0.2188949E-02 -0.1303937E-02 -0.2417303E+01 -0.2828846E+01
  0.6000000E+00  0.4630401E-03 -0.2920879E-03  0.2900374E+07  0.2918006E+07  0.4420499E-02  0.1041067E-01  0.4851106E+07  0.1407408E+07  0.2188949E-02 -0.9197749E-03 -0.2417303E+01 -0.2559632E+01
  0.7000000E+00  0.4630401E-03 -0.3137247E-03  0.2900374E+07  0.2373982E+07  0.4420499E-02  0.1006618E-01  0.4851106E+07  0.1497881E+07  0.2188949E-02 -0.4488752E-03 -0.2417303E+01 -0.2262472E+01
  0.8000000E+00  0.4630401E-03 -0.3313153E-03  0.2900374E+07  0.1828068E+07  0.4420499E-02  0.9682009E-02  0.4851106E+07  0.1527081E+07  0.2188949E-02  0.1050466E-03 -0.2417303E+01 -0.1946858E+01
  0.9000000E+00  0.4630401E-03 -0.3434147E-03  0.2900374E+07  0.1298898E+07  0.4420499E-02  0.9262224E-02  0.4851106E+07  0.1485815E+07  0.2188949E-02  0.7320107E-03 -0.2417303E+01 -0.1622388E+01
  0.1000000E+01  0.4630401E-03 -0.3491124E-03  0.2900374E+07  0.8004577E+06  0.4420499E-02  0.8810432E-02  0.4851106E+07  0.1372775E+07  0.2188949E-02  0.1416064E-02 -0.2417303E+01 -0.1297922E+01
  0.1100000E+01  0.4630401E-03 -0.3480399E-03  0.2900374E+07  0.3418194E+06  0.4420499E-02  0.8329535E-02  0.4851106E+07  0.1194119E+07  0.2188949E-02  0.2136538E-02 -0.2417303E+01 -0.9807695E+00
  0.1200000E+01  0.4630401E-03 -0.3403053E-03  0.2900374E+07 -0.7249859E+05  0.4420499E-02  0.7821556E-02  0.4851106E+07  0.9620795E+06  0.2188949E-02  0.2870059E-02 -0.2417303E+01 -0.6760159E+00
  0.1300000E+01  0.4630401E-03 -0.3263736E-03  0.2900374E+07 -0.4416824E+06  0.4420499E-02  0.7287588E-02  0.4851106E+07  0.6928766E+06  0.2188949E-02  0.3593011E-02 -0.2417303E+01 -0.3861571E+00
  0.1400000E+01  0.4630401E-03 -0.3069154E-03  0.2900374E+07 -0.7674879E+06  0.4420499E-02  0.6727870E-02  0.4851106E+07  0.4043346E+06  0.2188949E-02  0.4283990E-02 -0.2417303E+01 -0.1111310E+00
  0.1500000E+01  0.4630401E-03 -0.2826516E-03  0.2900374E+07 -0.1053045E+07  0.4420499E-02  0.6142001E-02  0.4851106E+07  0.1135919E+06  0.2188949E-02  0.4925887E-02 -0.2417303E+01  0.1512338E+00
  0.1600000E+01  0.4630401E-03 -0.2542184E-03  0.2900374E+07 -0.1301793E+07  0.4420499E-02  0.5529330E-02  0.4851106E+07 -0.1647483E+06  0.2188949E-02  0.5507208E-02 -0.2417303E+01  0.4044037E+00
  0.1700000E+01  0.4630401E-03 -0.2220785E-03  0.2900374E+07 -0.1516708E+07  0.4420499E-02  0.4889359E-02  0.4851106E+07 -0.4197984E+06  0.2188949E-02  0.6022426E-02 -0.2417303E+01  0.6521063E+00
  0.1800000E+01  0.4630401E-03 -0.1864815E-03  0.2900374E+07 -0.1699886E+07  0.4420499E-02  0.4222275E-02  0.4851106E+07 -0.6448096E+06  0.2188949E-02  0.6471285E-02 -0.2417303E+01  0.8972662E+00
  0.1900000E+01  0.4630401E-03 -0.1474840E-03  0.2900374E+07 -0.1852499E+07  0.4420499E-02  0.3529407E-02  0.4851106E+07 -0.8368889E+06  0.2188949E-02  0.6857253E-02 -0.2417303E+01  0.1141112E+01
  0.2000000E+01  0.4630401E-03 -0.1050153E-03  0.2900374E+07 -0.1975023E+07  0.4420499E-02  0.2813566E-02  0.4851106E+07 -0.9961848E+06  0.2188949E-02  0.7185329E-02 -0.2417303E+01  0.1382642E+01
  0.2100000E+01  0.4630401E-03 -0.5897598E-04  0.2900374E+07 -0.2067670E+07  0.4420499E-02  0.2079210E-02  0.4851106E+07 -0.1124777E+07  0.2188949E-02  0.7459673E-02 -0.2417303E+01  0.1618536E+01
  0.2200000E+01  0.4630401E-03 -0.9348985E-05  0.2900374E+07 -0.2130848E+07  0.4420499E-02  0.1332402E-02  0.4851106E+07 -0.1225546E+07  0.2188949E-02  0.7681462E-02 -0.2417303E+01  0.1843548E+01
  0.2300000E+01  0.4630401E-03  0.4370039E-04  0.2900374E+07 -0.2165554E+07  0.4420499E-02  0.5804717E-03  0.4851106E+07 -0.1301238E+07  0.2188949E-02  0.7847381E-02 -0.2417303E+01  0.2051285E+01
  0.2400000E+01  0.4630401E-03  0.9975056E-04  0.2900374E+07 -0.2173596E+07  0.4420499E-02 -0.1685229E-03  0.4851106E+07 -0.1353880E+07  0.2188949E-02  0.7949023E-02 -0.2417303E+01  0.2235198E+01
  0.2500000E+01  0.4630401E-03  0.1580903E-03  0.2900374E+07 -0.2157608E+07  0.4420499E-02 -0.9065164E-03  0.4851106E+07 -0.1384603E+07  0.2188949E-02  0.7973377E-02 -0.2417303E+01  0.2389584E+01
  0.2600000E+01  0.4630401E-03  0.2177307E-03  0.2900374E+07 -0.2120869E+07  0.4420499E-02 -0.1626247E-02  0.4851106E+07 -0.1393831E+07  0.2188949E-02  0.7904232E-02 -0.2417303E+01  0.2510377E+01
  0.2700000E+01  0.4630401E-03  0.2774584E-03  0.2900374E+07 -0.2066988E+07  0.4420499E-02 -0.2322025E-02  0.4851106E+07 -0.1381723E+07  0.2188949E-02  0.7724390E-02 -0.2417303E+01  0.2595583E+01
  0.2800000E+01  0.4630401E-03  0.3359202E-03  0.2900374E+07 -0.1999514E+07  0.4420499E-02 -0.2990350E-02  0.4851106E+07 -0.1348697E+07  0.2188949E-02  0.7418205E-02 -0.2417303E+01  0.2645231E+01
  0.2900000E+01  0.4630401E-03  0.3917249E-03  0.2900374E+07 -0.1921587E+07  0.4420499E-02 -0.3630293E-02  0.4851106E+07 -0.1295896E+07  0.2188949E-02  0.6974075E-02 -0.2417303E+01  0.2660933E+01
  0.3000000E+01  0.4630401E-03  0.4435429E-03  0.2900374E+07 -0.1835686E+07  0.4420499E-02 -0.4243509E-02  0.4851106E+07 -0.1225458E+07  0.2188949E-02  0.6386445E-02 -0.2417303E+01  0.2645125E+01
  0.3100000E+01  0.4630401E-03  0.4901921E-03  0.2900374E+07 -0.1743529E+07  0.4420499E-02 -0.4833937E-02  0.4851106E+07 -0.1140525E+07  0.2188949E-02  0.5656938E-02 -0.2417303E+01  0.2600178E+01
  0.3200000E+01  0.4630401E-03  0.5306926E-03  0.2900374E+07 -0.1646135E+07  0.4420499E-02 -0.5407153E-02  0.4851106E+07 -0.1044998E+07  0.2188949E-02  0.4794501E-02 -0.2417303E+01  0.2527662E+01
  0.3300000E+01  0.4630401E-03  0.5642921E-03  0.2900374E+07 -0.1544012E+07  0.4420499E-02 -0.5969499E-02  0.4851106E+07 -0.9431068E+06  0.2188949E-02  0.3814490E-02 -0.2417303E+01  0.2427867E+01
  0.3400000E+01  0.4630401E-03  0.5904533E-03  0.2900374E+07 -0.1437423E+07  0.4420499E-02 -0.6527056E-02  0.4851106E+07 -0.8388941E+06  0.2188949E-02  0.2736882E-02 -0.2417303E+01  0.2299810E+01
  0.3500000E+01  0.4630401E-03  0.6088191E-03  0.2900374E+07 -0.1326676E+07  0.4420499E-02 -0.7084709E-02  0.4851106E+07 -0.7357429E+06  0.2188949E-02  0.1583979E-02 -0.2417303E+01  0.2141662E+01
  0.3600000E+01  0.4630401E-03  0.6191593E-03  0.2900374E+07 -0.1212325E+07  0.4420499E-02 -0.7645315E-02  0.4851106E+07 -0.6360468E+06  0.2188949E-02  0.3779407E-03 -0.2417303E+01  0.1951580E+01
  0.3700000E+01  0.4630401E-03  0.6213170E-03  0.2900374E+07 -0.1095312E+07  0.4420499E-02 -0.8209213E-02  0.4851106E+07 -0.5410939E+06  0.2188949E-02 -0.8613529E-03 -0.2417303E+01  0.1728729E+01
  0.3800000E+01  0.4630401E-03  0.6151630E-03  0.2900374E+07 -0.9769424E+06  0.4420499E-02 -0.8774094E-02  0.4851106E+07 -0.4511703E+06  0.2188949E-02 -0.2117780E-02 -0.2417303E+01  0.1474277E+01
  0.3900000E+01  0.4630401E-03  0.6005742E-03  0.2900374E+07 -0.8587760E+06  0.4420499E-02 -0.9335226E-02  0.4851106E+07 -0.3658501E+06  0.2188949E-02 -0.3379592E-02 -0.2417303E+01  0.1192131E+01
  0.4000000E+01  0.4630401E-03  0.5774330E-03  0.2900374E+07 -0.7424229E+06  0.4420499E-02 -0.9886050E-02  0.4851106E+07 -0.2843877E+06  0.2188949E-02 -0.4639016E-02 -0.2417303E+01  0.8892007E+00
  0.4100000E+01  0.4630401E-03  0.5456567E-03  0.2900374E+07 -0.6293205E+06  0.4420499E-02 -0.1041897E-01  0.4851106E+07 -0.2061165E+06  0.2188949E-02 -0.5891082E-02 -0.2417303E+01  0.5751238E+00
  0.4200000E+01  0.4630401E-03  0.5052439E-03  0.2900374E+07 -0.5205367E+06  0.4420499E-02 -0.1092629E-01  0.4851106E+07 -0.1307568E+06  0.2188949E-02 -0.7131833E-02 -0.2417303E+01  0.2614517E+00
  0.4300000E+01  0.4630401E-03  0.4563360E-03  0.2900374E+07 -0.4166515E+06  0.4420499E-02 -0.1140099E-01  0.4851106E+07 -0.5857394E+05  0.2188949E-02 -0.8356311E-02 -0.2417303E+01 -0.3956269E-01
  0.4400000E+01  0.4630401E-03  0.3992751E-03  0.2900374E+07 -0.3177389E+06  0.4420499E-02 -0.1183743E-01  0.4851106E+07  0.9648195E+04  0.2188949E-02 -0.9556810E-02 -0.2417303E+01 -0.3163744E+00
  0.4500000E+01  0.4630401E-03  0.3346557E-03  0.2900374E+07 -0.2234572E+06  0.4420499E-02 -0.1223161E-01  0.4851106E+07  0.7279110E+05  0.2188949E-02 -0.1072161E-01 -0.2417303E+01 -0.5594659E+00
  0.4600000E+01  0.4630401E-03  0.2633528E-03  0.2900374E+07 -0.1332171E+06  0.4420499E-02 -0.1258118E-01  0.4851106E+07  0.1296879E+06  0.2188949E-02 -0.1183456E-01 -0.2417303E+01 -0.7623502E+00
  0.4700000E+01  0.4630401E-03  0.1865277E-03  0.2900374E+07 -0.4639479E+05  0.4420499E-02 -0.1288508E-01  0.4851106E+07  0.1794355E+06  0.2188949E-02 -0.1287550E-01 -0.2417303E+01 -0.9220704E+00
  0.4800000E+01  0.4630401E-03  0.1056054E-03  0.2900374E+07  0.3746443E+05  0.4420499E-02 -0.1314285E-01  0.4851106E+07  0.2216440E+06  0.2188949E-02 -0.1382160E-01 -0.2417303E+01 -0.1039114E+01
  0.4900000E+01  0.4630401E-03  0.2222830E-04  0.2900374E+07  0.1184979E+06  0.4420499E-02 -0.1335394E-01  0.4851106E+07  0.2565686E+06  0.2188949E-02 -0.1464921E-01 -0.2417303E+01 -0.1116792E+01