VARIABLES="w (rad/s)"
"A   1   1" "B   1   1"
"A   1   2" "B   1   2"
"A   1   3" "B   1   3"
"A   1   4" "B   1   4"
"A   1   5" "B   1   5"
"A   1   6" "B   1   6"
Zone t="Motion of body    1 in DoF   1",I=    95,F=POINT
  0.3000000E+00  0.2999544E+07  0.9811026E+04 -0.1627604E-01  0.0000000E+00 -0.6848145E+00  0.1270676E-01 -0.6510417E-02 -0.3051758E-04  0.6055548E+07  0.7625605E+05  0.1985677E+01 -0.7484436E-02
  0.3500000E+00  0.3092698E+07  0.2147004E+05 -0.6277902E-02 -0.7629395E-04  0.1886510E+01  0.5590286E+00 -0.5580357E-02 -0.1464844E-02  0.6511912E+07  0.1607602E+06 -0.7533482E-01 -0.3509521E-02
  0.4000000E+00  0.3208602E+07  0.4565570E+05  0.9155273E-02 -0.9155273E-04 -0.1296387E+01 -0.3050385E+00 -0.4882812E-02 -0.8544922E-03  0.6975768E+07  0.3285711E+06 -0.4260254E+00 -0.3535461E-01
  0.4500000E+00  0.3353349E+07  0.9370980E+05  0.8680556E-02 -0.7324219E-03 -0.5712891E+00 -0.9348145E+00 -0.2170139E-01 -0.9765625E-03  0.7512212E+07  0.6407731E+06  0.1953125E-01 -0.5599976E-01
  0.5000000E+00  0.3484485E+07  0.1797502E+06  0.2929688E-02 -0.8544922E-03 -0.1363770E+01 -0.1210815E+01  0.1171875E-01  0.1269531E-01  0.7991034E+07  0.1169113E+07 -0.1312500E+01 -0.9783936E-01
  0.5500000E+00  0.3615797E+07  0.3198606E+06  0.1775568E-02 -0.4882812E-03  0.1288175E+01  0.4991455E+00 -0.8522727E-01 -0.9765625E-03  0.8206058E+07  0.1965046E+07  0.8966619E+00  0.1234131E+00
  0.6000000E+00  0.3689588E+07  0.5209162E+06 -0.1464844E-01  0.3906250E-02 -0.8463541E-01 -0.6103516E-01  0.7161458E-01 -0.1269531E-01  0.7959990E+07  0.3010142E+07 -0.1573893E+01 -0.6047363E+00
  0.6500000E+00  0.3680999E+07  0.7776999E+06  0.5258413E-02 -0.4394531E-02  0.1066707E+00  0.3452148E+00  0.6009615E-02  0.2148438E-01  0.7294816E+07  0.4216969E+07  0.3560697E+00 -0.2324219E+01
  0.7000000E+00  0.3570026E+07  0.1070308E+07 -0.6975446E-02 -0.5371094E-02 -0.1782227E+00  0.3930664E-01 -0.5022322E-01 -0.1953125E-02  0.6006222E+07  0.5386078E+07  0.2130301E+01 -0.1312500E+01
  0.7500000E+00  0.3372836E+07  0.1363398E+07  0.6510417E-03 -0.1611328E-01 -0.2060547E+00 -0.1240234E+00 -0.1562500E-01  0.7812500E-02  0.4490735E+07  0.6397357E+07  0.1266927E+01  0.1098633E+00
  0.8000000E+00  0.3110640E+07  0.1628048E+07 -0.1464844E-01 -0.1855469E-01 -0.2279663E+00  0.1826172E+00 -0.2441406E-02 -0.7031250E-01  0.2702646E+07  0.7015715E+07 -0.2236328E+01 -0.7050781E+00
  0.8500000E+00  0.2826433E+07  0.1841158E+07 -0.5744485E-03 -0.7812500E-02 -0.6778493E-01  0.6787109E-01 -0.9191176E-02 -0.3515625E-01  0.1076114E+07  0.7297946E+07 -0.6893382E-01  0.4208984E+00
  0.9000000E+00  0.2555711E+07  0.1999791E+07 -0.1898872E-02 -0.3613281E-01  0.2117242E+00 -0.2392578E-01 -0.1410590E-01  0.1562500E-01 -0.3956629E+06  0.7155954E+07  0.1705729E+01  0.1161133E+01
  0.9500000E+00  0.2324126E+07  0.2114502E+07 -0.8223685E-02  0.1660156E-01 -0.8095189E-02  0.5761719E-01  0.0000000E+00  0.1953125E-01 -0.1580544E+07  0.6671654E+07 -0.2122739E+01 -0.3095703E+00
  0.9999999E+00  0.2147596E+07  0.2212571E+07  0.3936768E-02  0.9765625E-03  0.1691895E+00 -0.1166992E+00  0.4882813E-02  0.1171875E-01 -0.2468608E+07  0.5973966E+07  0.1514649E+01  0.6347656E+00
  0.1050000E+01  0.2006163E+07  0.2328742E+07  0.1325335E-01  0.1171875E-01  0.7248652E-01 -0.1335449E+00 -0.3185454E-01 -0.7812500E-01 -0.3039461E+07  0.4971535E+07  0.1037946E+01 -0.8906250E+00
  0.1100000E+01  0.1866248E+07  0.2497914E+07  0.1242898E-01 -0.6835938E-02  0.6062768E-01  0.6884766E-01 -0.1109730E-03  0.4882812E-01 -0.3251796E+07  0.3808984E+07 -0.6897194E+01  0.1562500E+00
  0.1150000E+01  0.1661446E+07  0.2711042E+07  0.1231318E-01  0.0000000E+00  0.9731127E-01  0.3222656E-01  0.4654594E-01  0.2734375E-01 -0.3067119E+07  0.2610397E+07  0.2146739E+01  0.4501953E+01
  0.1200000E+01  0.1361722E+07  0.2862113E+07  0.3255208E-02 -0.9765625E-03  0.1699050E-01 -0.3271484E-01 -0.2257029E-01  0.3906250E-02 -0.2510190E+07  0.1642460E+07  0.7120768E+00  0.1982422E+01
  0.1250000E+01  0.1047966E+07  0.2865728E+07 -0.5468750E-02  0.1953125E-02  0.6636963E-01  0.1711426E+00  0.8789062E-03 -0.1367188E-01 -0.1875862E+07  0.1093157E+07 -0.2308203E+01  0.4121094E+00
  0.1300000E+01  0.8003996E+06  0.2743404E+07  0.1878005E-02  0.9277344E-02  0.7838323E-01  0.1199951E+00 -0.7136418E-02  0.2343750E-01 -0.1382123E+07  0.8548364E+06 -0.8751503E+00  0.1244141E+01
  0.1350000E+01  0.6359361E+06  0.2566246E+07 -0.3978588E-02 -0.5859375E-02 -0.4648844E+00  0.7265625E+00 -0.2531829E-02  0.9765625E-03 -0.1021414E+07  0.7340008E+06  0.1395942E+01  0.1009766E+01
  0.1400000E+01  0.5315840E+06  0.2376784E+07  0.2790179E-02 -0.9765625E-03 -0.5340576E-01 -0.3649902E-01  0.1046317E-01  0.1171875E-01 -0.7631326E+06  0.6600181E+06  0.1874128E+01  0.2714844E+00
  0.1450000E+01  0.4609975E+06  0.2205242E+07 -0.1010237E-02  0.2929688E-02 -0.8485991E-01 -0.7922363E-01 -0.4714440E-02  0.1074219E-01 -0.6099625E+06  0.5936932E+06  0.6024801E+00 -0.1291016E+01
  0.1500000E+01  0.5029675E+06  0.1837286E+07  0.9765625E-03  0.2929688E-02  0.1231283E+00  0.2046509E+00 -0.2604167E-02  0.3906250E-02 -0.3454718E+06  0.3021253E+06  0.1078288E+00 -0.1054688E+00
  0.1550000E+01  0.4445260E+06  0.1821745E+07  0.3150202E-03 -0.9765625E-03 -0.1346711E+00  0.3320312E-01  0.1260081E-02 -0.5859375E-02 -0.2305622E+06  0.3441795E+06  0.4030683E+00 -0.1386719E+00
  0.1600000E+01  0.4411007E+06  0.1669068E+07 -0.1068115E-02  0.9765625E-03 -0.1091766E+00  0.3237915E-01  0.8544922E-02  0.1708984E-02 -0.7866866E+05  0.3291639E+06  0.1800537E+00  0.1046875E+01
  0.1650000E+01  0.4535081E+06  0.1526921E+07 -0.2959280E-03  0.0000000E+00 -0.1008375E+00  0.1269531E-01  0.0000000E+00 -0.7324219E-03  0.5635372E+05  0.3074449E+06  0.3639915E-01  0.1826172E+01
  0.1700000E+01  0.4754262E+06  0.1391978E+07  0.2872242E-03  0.1220703E-02 -0.1179056E+00  0.4005432E-01 -0.6893382E-02  0.2197266E-02  0.1626200E+06  0.3110185E+06 -0.1071347E+01  0.5761719E+00
  0.1750000E+01  0.5039558E+06  0.1274981E+07  0.6975447E-03  0.0000000E+00 -0.9207589E-01  0.3065491E-01 -0.1116071E-02 -0.3662109E-03  0.2561097E+06  0.2914129E+06 -0.5491071E+00  0.1707031E+01
  0.1800000E+01  0.5289726E+06  0.1168547E+07 -0.5425347E-03 -0.2441406E-03 -0.4855686E-01 -0.7342529E-01 -0.2929688E-01  0.1831055E-02  0.3433421E+06  0.2932906E+06 -0.3976780E+00  0.1474609E+01
  0.1850000E+01  0.4847782E+06  0.8961466E+06  0.2321810E-02 -0.3662109E-03 -0.1979518E-02 -0.1581192E+00 -0.1055743E-02 -0.2563477E-02  0.3122242E+06  0.4044271E+06  0.3336149E+00  0.2099609E+00
  0.1900000E+01  0.6408642E+06  0.1020964E+07  0.3212377E-03  0.4882812E-03 -0.3597862E-01  0.1364899E-01 -0.4111842E-02  0.1220703E-03  0.5044572E+06  0.2325932E+06 -0.3659540E+00 -0.1854492E+01
  0.1950000E+01  0.6586189E+06  0.9525316E+06 -0.3756009E-03  0.4882812E-03  0.1294571E+00 -0.3735352E-01  0.8012820E-02  0.0000000E+00  0.5580769E+06  0.3051587E+06  0.1021635E+00 -0.2119141E+00
  0.2000000E+01  0.6848249E+06  0.8980778E+06 -0.1342773E-02  0.9765625E-03  0.1550293E-01 -0.2929688E-02  0.1367188E-01 -0.4882812E-03  0.6060868E+06  0.3469596E+06 -0.1152344E+00 -0.1738281E+00
  0.2050000E+01  0.7089211E+06  0.8577189E+06 -0.2381860E-03  0.4882812E-03  0.7395675E-01 -0.9216309E-02 -0.1619665E-01  0.3051758E-03  0.6417858E+06  0.3741213E+06 -0.4153964E+00  0.2314453E+00
  0.2100000E+01  0.7256063E+06  0.8209340E+06 -0.6975447E-03 -0.4882812E-03  0.7324219E-01  0.1367950E-01 -0.3720238E-02  0.7324219E-03  0.6691421E+06  0.4050694E+06  0.9114584E-01 -0.1543945E+01
  0.2150000E+01  0.7309175E+06  0.7746252E+06  0.6813227E-03 -0.2441406E-03  0.7369640E-01 -0.1050568E-01  0.1271802E-01 -0.8850098E-03  0.6866899E+06  0.4429965E+06  0.3633721E+00  0.1537598E+01
  0.2200000E+01  0.6907483E+06  0.5298279E+06 -0.1331676E-02 -0.3295898E-02  0.1839933E+00 -0.1956029E+00 -0.8877841E-02 -0.9822845E-03  0.5944426E+06  0.4611462E+06  0.4048295E+00  0.1855469E+00
  0.2250000E+01  0.8004904E+06  0.6832418E+06  0.1085070E-03  0.2441406E-03  0.6597222E-01  0.7927895E-02 -0.1562500E-01 -0.5264282E-03  0.7485807E+06  0.4026841E+06  0.6495225E+00 -0.2841797E+00
  0.2300000E+01  0.8055684E+06  0.6374631E+06 -0.3184443E-03  0.0000000E+00  0.1416016E+00 -0.3336191E-02  0.0000000E+00 -0.2021790E-03  0.7609928E+06  0.4458155E+06  0.3354280E+00  0.2163086E+00
  0.2350000E+01  0.8159933E+06  0.5861228E+06 -0.6233378E-03  0.3662109E-03  0.1240442E+00 -0.6704330E-03 -0.1994681E-01  0.2861023E-03  0.7687738E+06  0.4524239E+06  0.9651347E-01 -0.1038574E+01
  0.2400000E+01  0.8340992E+06  0.5541673E+06 -0.3051758E-03 -0.2441406E-03  0.9053548E-01 -0.1352215E-01 -0.6510417E-02 -0.5645752E-03  0.7820175E+06  0.4570441E+06  0.1008402E+01 -0.8183594E+00
  0.2450000E+01  0.8431667E+06  0.5048188E+06  0.7971938E-03  0.1220703E-03  0.1006457E+00 -0.3362656E-02 -0.2551020E-01  0.2441406E-03  0.7816391E+06  0.4641772E+06 -0.1231664E+00  0.1699219E+00
  0.2500000E+01  0.8354519E+06  0.3828836E+06 -0.9765625E-03 -0.3356934E-03  0.1742187E+00 -0.1084566E-01 -0.1718750E-01  0.1068115E-03  0.7514770E+06  0.4663061E+06  0.1708984E+00 -0.6787109E-01
  0.2550000E+01  0.9242434E+06  0.4508033E+06  0.2872243E-03  0.1220703E-03  0.1005285E+00 -0.1056288E-01  0.0000000E+00  0.3812313E-03  0.8388417E+06  0.3555789E+06 -0.8033902E+00 -0.4619141E+00
  0.2600000E+01  0.9215078E+06  0.4247119E+06 -0.2347506E-03  0.0000000E+00  0.4488432E-01 -0.2484322E-02  0.0000000E+00 -0.3814697E-04  0.8402221E+06  0.4163717E+06 -0.4277156E-01  0.2841797E+00
  0.2650000E+01  0.9317577E+06  0.3994915E+06 -0.9212853E-04  0.2441406E-03  0.1553287E+00 -0.4343390E-03  0.1621462E-01 -0.3221035E-03  0.8438834E+06  0.4320793E+06  0.2802550E+00 -0.2099609E+00
  0.2700000E+01  0.9392358E+06  0.3796036E+06 -0.1808449E-02 -0.2441406E-03  0.9693287E-01 -0.4870892E-03  0.4340278E-02  0.1964569E-03  0.8464527E+06  0.4314122E+06  0.2574327E+00 -0.2451172E+00
  0.2750000E+01  0.9413654E+06  0.3341455E+06 -0.1331676E-02  0.0000000E+00  0.1381392E+00  0.4486084E-02 -0.1562500E-01  0.4196167E-03  0.8412246E+06  0.4213673E+06  0.3715377E-01  0.1000977E+00
  0.2800000E+01  0.1010235E+07  0.1117204E+06  0.2441406E-02  0.4882812E-03  0.9050642E-01  0.3913879E-02 -0.6975446E-02  0.5340576E-03  0.8272648E+06  0.1539238E+06  0.6661551E-01  0.5734863E+00
  0.2850000E+01  0.9977386E+06  0.3452973E+06 -0.2612733E-02 -0.1220703E-03  0.1644737E+00 -0.1408339E-02 -0.2741228E-02 -0.2129078E-03  0.9590938E+06  0.3820788E+06 -0.9920248E+00  0.2294922E-01
  0.2900000E+01  0.9974496E+06  0.3127325E+06  0.3367457E-03  0.3662109E-03  0.8014547E-01  0.6159067E-02 -0.1077586E-01  0.7128716E-03  0.8971578E+06  0.3929700E+06  0.1038103E+01  0.6401367E+00
  0.2950000E+01  0.1001203E+07  0.2863941E+06  0.0000000E+00 -0.1831055E-03  0.1365532E+00 -0.4044771E-03 -0.1986229E-01 -0.1564026E-03  0.8928449E+06  0.3837521E+06 -0.1504734E+01 -0.1240234E+00
  0.3000000E+01  0.1007021E+07  0.2365467E+06  0.1424154E-02  0.0000000E+00  0.1000977E+00  0.1109564E-01 -0.3906250E-02 -0.3929138E-03  0.8375188E+06  0.3472424E+06 -0.1294596E+01 -0.4448242E+00
  0.3050000E+01  0.1026893E+07  0.7395081E+05 -0.9605533E-03 -0.1831055E-03  0.1170274E+00 -0.1722336E-02 -0.2689549E-01  0.3051758E-03  0.8174868E+06  0.1971516E+06  0.4236040E+00  0.1159668E+00
  0.3100000E+01  0.1053422E+07  0.2749363E+06 -0.2933625E-02 -0.6103516E-04  0.1045867E+00 -0.8510590E-02  0.8820564E-02  0.6866455E-04  0.8385979E+06  0.3174070E+06 -0.5209646E+00 -0.4038086E+00
  0.3150000E+01  0.1048384E+07  0.2430581E+06  0.7750496E-03  0.1220703E-03  0.5843874E-01 -0.2088547E-02  0.1612103E-01 -0.8773804E-04  0.8345643E+06  0.3288539E+06 -0.1919255E+01 -0.2456055E+00
  0.3200000E+01  0.1051790E+07  0.2104394E+06 -0.2670288E-03  0.0000000E+00  0.9750366E-01  0.4096270E-02  0.5859375E-01  0.8068085E-03  0.8288919E+06  0.3116581E+06  0.1538086E+00 -0.2846680E+00
  0.3250000E+01  0.1054752E+07  0.1703029E+06  0.5258414E-03  0.0000000E+00  0.4176683E-01 -0.1115799E-03  0.1201923E-02  0.3814697E-04  0.7692772E+06  0.2875198E+06  0.8909255E+00  0.1352539E+00
  0.3300000E+01  0.1116808E+07  0.6469800E+05  0.2256451E-02  0.2441406E-03  0.9055398E-01  0.3999531E-02 -0.1775568E-01 -0.4363060E-03  0.8090347E+06  0.8013050E+05  0.4266265E+00 -0.1893311E+00
  0.3350000E+01  0.1091763E+07  0.2157230E+06 -0.2350309E-02  0.9155273E-04  0.9721898E-01  0.2346039E-03 -0.2332090E-02  0.1602173E-03  0.8191769E+06  0.2884535E+06 -0.1549136E+01  0.4711914E-01
  0.3400000E+01  0.1088517E+07  0.1809224E+06 -0.1507927E-02  0.3433228E-04  0.9363510E-01 -0.6763026E-02 -0.1493566E-01  0.2779961E-03  0.8159983E+06  0.2791844E+06  0.5809694E+00  0.2490234E-01
  0.3450000E+01  0.1090985E+07  0.1515833E+06 -0.6722713E-03  0.1220703E-03  0.1297837E+00  0.1709223E-02 -0.2943841E-01 -0.1945496E-03  0.7544920E+06  0.2541039E+06  0.1323525E+01  0.1049805E+00
  0.3500000E+01  0.1098766E+07  0.5597907E+05  0.1325335E-02 -0.1068115E-03  0.5803571E-01  0.6675720E-02 -0.2232143E-01  0.3814697E-03  0.7448594E+06  0.1618980E+06  0.1161482E+01 -0.1055908E-01
  0.3550000E+01  0.1133934E+07  0.1853268E+06 -0.1650528E-02  0.1525879E-04  0.8651519E-01  0.2954483E-02  0.0000000E+00  0.3051758E-04  0.8088305E+06  0.2175815E+06  0.3117435E+00  0.2570801E+00
  0.3600000E+01  0.1116715E+07  0.1609090E+06  0.8477105E-03 -0.2288818E-04  0.9955513E-01  0.8106232E-05  0.1085069E-01  0.1344681E-03  0.7301362E+06  0.2303928E+06 -0.3568522E+00 -0.1171875E-01
  0.3650000E+01  0.1117931E+07  0.1291767E+06 -0.8528200E-03  0.1220703E-03  0.1237425E+00  0.2895594E-02  0.2140411E-02  0.4768372E-04  0.7350916E+06  0.2219988E+06  0.1010906E+01  0.2685547E-01
  0.3700000E+01  0.1121425E+07  0.5723577E+05  0.3959037E-03  0.6103516E-04  0.9000211E-01  0.1180649E-02 -0.1055743E-01 -0.7629395E-04  0.7344660E+06  0.1688760E+06 -0.5385198E+00 -0.2526855E-01
  0.3750000E+01  0.1166137E+07  0.1334932E+06  0.2652995E-02 -0.2441406E-03  0.5468750E-01 -0.7388115E-02 -0.2291667E-01  0.3051758E-03  0.7816993E+06  0.1249851E+06  0.4517578E+00 -0.1745605E+00
  0.3800000E+01  0.1143736E+07  0.1394561E+06  0.2088045E-03  0.0000000E+00  0.1421155E+00 -0.2284288E-02  0.3289474E-01 -0.3814697E-05  0.7758939E+06  0.2024780E+06  0.2818539E+00 -0.3173828E-02
  0.3850000E+01  0.1141340E+07  0.1091371E+06 -0.1525879E-03  0.6103516E-04  0.3551136E-01  0.2111673E-02  0.1826299E-01 -0.5340576E-04  0.7214006E+06  0.2209670E+06 -0.4052655E+00  0.1899414E+00
  0.3900000E+01  0.1144756E+07  0.3631968E+05  0.9390023E-04  0.0000000E+00  0.1134315E+00 -0.1071167E-01  0.6009615E-02 -0.3128052E-03  0.6999164E+06  0.2769399E+06 -0.5272738E+00 -0.3015137E-01
  0.3950000E+01  0.1180890E+07  0.1031052E+06  0.4172023E-03  0.1220703E-03  0.1295491E+00  0.9377480E-02  0.2175633E-01  0.2441406E-03  0.7249266E+06 -0.4914936E+05  0.1193570E+01 -0.1572266E+00
  0.4000000E+01  0.1164810E+07  0.1136964E+06 -0.9231567E-03 -0.1831055E-03  0.7983398E-01 -0.6818771E-03 -0.1953125E-02 -0.3662109E-03  0.7592375E+06  0.1125127E+06 -0.4321899E+00  0.1821289E+00
  0.4050000E+01  0.1161676E+07  0.8101967E+05 -0.2411265E-03 -0.6103516E-04  0.1721644E+00 -0.8254051E-03 -0.2893518E-01 -0.6484985E-04  0.7616324E+06  0.1965357E+06 -0.1337755E+01  0.2124023E-01
  0.4100000E+01  0.1171126E+07 -0.9682018E+03 -0.5954650E-03  0.6103516E-04  0.5645008E-01  0.1530457E-01  0.2858232E-01 -0.2822876E-03  0.7363246E+06  0.2069876E+06 -0.1151986E+01  0.1778412E-01
  0.4150000E+01  0.1191364E+07  0.1105249E+06 -0.8695671E-03  0.0000000E+00  0.5906438E-01 -0.8647919E-02 -0.1882530E-02  0.4348755E-03  0.7810347E+06 -0.1562399E+04  0.4289815E+00 -0.2941895E+00
  0.4200000E+01  0.1177624E+07  0.9613091E+05 -0.7120768E-03  0.6103516E-04  0.1478795E+00 -0.1963496E-02 -0.5580357E-02 -0.1335144E-03  0.8017558E+06  0.1189890E+06 -0.3929502E-01  0.4785156E-01
  0.4250000E+01  0.1175848E+07  0.4321973E+05 -0.2186495E-02 -0.1525879E-04  0.1617647E+00 -0.1427412E-02  0.0000000E+00  0.1144409E-04  0.7980083E+06  0.1712675E+06 -0.5849322E+00 -0.1035156E+00
  0.4300000E+01  0.1203842E+07 -0.9286213E+04  0.9297215E-03 -0.6103516E-04  0.8970748E-01 -0.4452705E-02 -0.9084302E-02 -0.1659393E-03  0.7751130E+06  0.5181536E+05  0.3002362E+00 -0.7507324E-02
  0.4350000E+01  0.1197643E+07  0.1001835E+06 -0.1894195E-02  0.6103516E-04  0.1481681E+00  0.3870964E-02  0.1436782E-01  0.3356934E-03  0.8279120E+06  0.4669034E+05  0.1061310E+01  0.1108398E+00
  0.4400000E+01  0.1189589E+07  0.6470929E+05 -0.1387163E-03  0.3814697E-05  0.6769354E-01  0.9891391E-04  0.1242898E-01 -0.3743172E-04  0.8324968E+06  0.1274908E+06  0.2338645E+01 -0.4882812E-02
  0.4450000E+01  0.1197072E+07 -0.9311840E+04 -0.2629998E-02  0.7629395E-04  0.9743680E-01  0.1369333E-01  0.1228933E-01 -0.1296997E-03  0.8219412E+06  0.1273825E+06 -0.4166850E+00  0.1033020E-01
  0.4500000E+01  0.1217593E+07  0.7045645E+05 -0.2109104E-02 -0.1220703E-03  0.1527778E+00 -0.1016188E-01 -0.1909722E-01 -0.1678467E-03  0.8469983E+06  0.2968803E+04 -0.3897569E+00 -0.2015381E+00
  0.4550000E+01  0.1203340E+07  0.7183027E+05 -0.2602378E-02 -0.6103516E-04  0.1109632E+00 -0.1726389E-02 -0.6868131E-02 -0.4100800E-04  0.8630337E+06  0.9015976E+05  0.2172047E+00  0.8483887E-01
  0.4600000E+01  0.1203158E+07  0.1323207E+05  0.1923934E-02  0.5722046E-04  0.1095448E+00 -0.3328919E-02  0.1188859E-01 -0.1173019E-03  0.8593170E+06  0.1108660E+06  0.6866190E+00  0.1416016E-01
  0.4650000E+01  0.1227028E+07  0.8082262E+04  0.5775369E-03  0.0000000E+00  0.3906250E-01 -0.1337826E-03  0.1512097E-01 -0.1430511E-04  0.8649985E+06  0.6739367E+04  0.1911122E+01 -0.2070618E-01
  0.4700000E+01  0.1217110E+07  0.7322366E+05  0.0000000E+00 -0.6103516E-04  0.9827960E-01  0.2701402E-02 -0.4986702E-02  0.2288818E-04  0.8872899E+06  0.5618726E+05  0.1053545E+01  0.5493164E-01
  0.4750000E+01  0.1212466E+07  0.2409609E+05 -0.1927426E-03  0.3099442E-04  0.1299342E+00  0.3053546E-02 -0.1973684E-01  0.8785725E-04  0.8869604E+06  0.9045451E+05  0.9212582E+00  0.4235840E-01
  0.4800000E+01  0.1228898E+07 -0.1806557E+05  0.3363291E-02 -0.6103516E-04  0.1574707E+00  0.1449800E-01  0.4882812E-02 -0.7152557E-05  0.8864332E+06  0.3186546E+05 -0.2312012E+01  0.6195068E-02
  0.4850000E+01  0.1227966E+07  0.6516254E+05 -0.2378484E-02 -0.6103516E-04  0.1707474E+00 -0.8414298E-02 -0.8054124E-02 -0.1391172E-03  0.9102041E+06  0.3576354E+05 -0.2172600E+01 -0.2954102E-01
  0.4900000E+01  0.1220935E+07  0.2697290E+05 -0.5231585E-02 -0.9155273E-04  0.7114955E-01  0.2550304E-02  0.0000000E+00  0.2861023E-04  0.9114594E+06  0.7165915E+05  0.2613999E+01  0.2441406E-01
  0.4950000E+01  0.1233131E+07 -0.2915650E+05  0.1430319E-02  0.1525879E-04  0.2266809E+00 -0.4757643E-02  0.1420455E-01  0.4005432E-04  0.9111032E+06  0.2963814E+05  0.1453105E+01  0.1309204E-01
  0.5000000E+01  0.1236700E+07  0.6210543E+05  0.8056641E-03  0.0000000E+00  0.1052734E+00  0.3564119E-02  0.4687500E-02  0.1907349E-03  0.9320150E+06  0.2321184E+05  0.3769531E+00  0.1451416E+00
Zone t="Motion of body    1 in DoF   2",I=    95,F=POINT
  0.3000000E+00  0.4959106E-02  0.2098083E-04  0.7521476E+07  0.1966321E+05  0.1912435E-01  0.3108978E-03  0.6517050E+07  0.1234104E+04  0.1228841E+00  0.1614571E-02 -0.1707016E+02  0.8058310E-02
  0.3500000E+00 -0.7542202E-02 -0.1082420E-03  0.7814643E+07  0.4433627E+05  0.1028878E+00 -0.3738403E-03  0.6615750E+07  0.4176928E+04 -0.2157157E+00  0.3547668E-03 -0.1071912E+02  0.4074907E-01
  0.4000000E+00 -0.9956360E-02  0.1888275E-03  0.8177298E+07  0.9828810E+05  0.1470947E+00 -0.6179810E-02  0.6751051E+07  0.1267983E+05  0.4005432E-01 -0.3644943E-02 -0.2128128E+02 -0.4806328E-01
  0.4500000E+00  0.5086263E-02  0.4940033E-03  0.8646203E+07  0.2127206E+06  0.2560764E+00  0.3234863E-02  0.6978080E+07  0.3617204E+05  0.1424154E+00 -0.1162338E-01  0.8944329E+02  0.6967201E+00
  0.5000000E+00  0.1586914E-02 -0.1091003E-02  0.9203097E+07  0.4371684E+06  0.1997070E+00  0.1275635E-01  0.7193914E+07  0.9037913E+05 -0.1928711E-01  0.1466370E-01 -0.6775571E+02 -0.4773369E+00
  0.5500000E+00  0.7712624E-02 -0.3417969E-02  0.9756351E+07  0.8454651E+06  0.1633523E+00  0.1379395E-01  0.7491010E+07  0.2090031E+06 -0.2541282E-01 -0.1441956E-01 -0.2476698E+02 -0.1179077E+01
  0.6000000E+00  0.1027425E-01  0.1678467E-02  0.1026404E+08  0.1520438E+07 -0.3092448E-01  0.2758789E-01  0.7839693E+07  0.4397466E+06 -0.4699707E+00  0.2996826E-01 -0.9872334E+01 -0.9493256E+00
  0.6500000E+00 -0.9390024E-04 -0.1800537E-02  0.1045386E+08  0.2507509E+07 -0.3079928E-01  0.3979492E-01  0.8047300E+07  0.8188223E+06 -0.1316481E+00 -0.6713867E-03 -0.4960374E+01 -0.1907288E+01
  0.7000000E+00  0.3444127E-02  0.3631592E-02  0.1012764E+08  0.3762518E+07 -0.3208705E-01  0.6372070E-01  0.8165451E+07  0.1389756E+07  0.3615025E+00  0.2255249E+00  0.5497088E+01 -0.4472809E+01
  0.7500000E+00  0.3214518E-02  0.4211426E-02  0.9253384E+07  0.5118534E+07 -0.1227214E+00  0.1547852E+00  0.7887538E+07  0.2041727E+07  0.1196289E-01  0.3051758E-01  0.1704134E+02  0.6213531E+01
  0.8000000E+00  0.1270294E-01 -0.1141357E-01  0.7858025E+07  0.6297632E+07 -0.5035400E-01  0.2329102E+00  0.7419478E+07  0.2752616E+07 -0.1510239E+00  0.5432129E-01  0.2046251E+02 -0.1631116E+02
  0.8500000E+00  0.8650387E-03  0.5371094E-02  0.6264519E+07  0.7103474E+07 -0.1608456E-01  0.1855469E-01  0.6658362E+07  0.3275159E+07  0.3823448E-01 -0.1246338E+00  0.8681883E+01 -0.8270630E+01
  0.9000000E+00  0.1949734E-02 -0.8972168E-02  0.4734637E+07  0.7482652E+07 -0.1016235E+00 -0.2094727E+00  0.5887980E+07  0.3659779E+07 -0.9324816E-02 -0.2990723E-01  0.9074842E+01 -0.4427979E+01
  0.9500000E+00  0.7292095E-02  0.6591797E-02  0.3446386E+07  0.7505418E+07 -0.3437243E-02  0.1240234E+00  0.5147756E+07  0.3841684E+07  0.2955387E-02  0.4199219E-01  0.7609960E+00 -0.1260696E+02
  0.9999999E+00  0.1007080E-02 -0.3051758E-02  0.2448573E+07  0.7278122E+07 -0.3784180E-02 -0.4882812E-03  0.4503224E+07  0.3827940E+07 -0.1031494E-01 -0.2471924E-01 -0.1525067E+02 -0.8812073E+01
  0.1050000E+01 -0.8719309E-03 -0.1464844E-02  0.1715528E+07  0.6886896E+07 -0.1278832E-02 -0.1555176E+00  0.3976155E+07  0.3716525E+07 -0.1156762E-01  0.4321289E-01 -0.5801247E+01 -0.7038513E+01
  0.1100000E+01  0.1414906E-02 -0.8331299E-02  0.1219013E+07  0.6405920E+07  0.3884055E-03 -0.7971191E-01  0.3568682E+07  0.3467176E+07 -0.5049272E-02 -0.1310425E+00  0.5943354E+01  0.2582397E+00
  0.1150000E+01 -0.2122962E-03  0.1220703E-02  0.9197702E+06  0.5895324E+07 -0.2720045E-02  0.4223633E-01  0.3293284E+07  0.3141292E+07  0.1857592E-02 -0.8709717E-01 -0.2265240E+01 -0.6034241E+00
  0.1200000E+01 -0.9282430E-03  0.1007080E-02  0.7697919E+06  0.5397768E+07  0.4628499E-02  0.8776855E-01  0.3118648E+07  0.2810313E+07  0.3814697E-03 -0.1003418E+00 -0.5146027E+01 -0.1214548E+02
  0.1250000E+01  0.2685547E-03 -0.9979248E-02  0.7287437E+06  0.4953527E+07  0.1464844E-02 -0.5212402E-01  0.3030109E+07  0.2489080E+07 -0.1464844E-02 -0.6774902E-02  0.2968628E+00 -0.2270630E+01
  0.1300000E+01 -0.2464881E-02  0.6835938E-02  0.7520792E+06  0.4580926E+07  0.3521259E-02 -0.2099609E-01  0.3024280E+07  0.2151522E+07 -0.6878193E-02  0.2270508E-01 -0.1895142E+00  0.8950500E+00
  0.1350000E+01  0.1288520E-02  0.2258301E-02  0.8063502E+06  0.4282807E+07 -0.6013093E-02  0.4797363E-01  0.3047900E+07  0.1890394E+07 -0.8590133E-03 -0.1428223E-01 -0.7891619E-01 -0.1167642E+02
  0.1400000E+01  0.2179827E-03 -0.6103516E-04  0.8648845E+06  0.4046896E+07  0.1198905E-01 -0.7690430E-02  0.3074468E+07  0.1656828E+07  0.8980887E-02 -0.2453613E-01 -0.1185019E+01 -0.1627499E+02
  0.1450000E+01 -0.1178610E-02  0.3570557E-02  0.9090203E+06  0.3874630E+07  0.3451643E-02 -0.7324219E-03  0.3111613E+07  0.1449372E+07  0.1986800E-01  0.1220703E-03  0.2046782E+01  0.1581207E+01
  0.1500000E+01 -0.3743490E-02  0.3715515E-02  0.9236841E+06  0.3732350E+07  0.2579753E-01  0.1458740E-01  0.3137167E+07  0.1254315E+07 -0.7975261E-02  0.5506897E-01  0.1303304E+00 -0.3614479E+01
  0.1550000E+01  0.1732611E-02 -0.1220703E-03  0.9064502E+06  0.3575385E+07 -0.3795993E-01  0.1013184E-01  0.3150111E+07  0.1051276E+07  0.1346711E-01 -0.1428223E-01 -0.1877796E+01  0.1318466E+01
  0.1600000E+01  0.9155273E-03 -0.9765625E-03  0.8839159E+06  0.3351732E+07  0.2716064E-01 -0.6072998E-02  0.3174545E+07  0.7840749E+06  0.1213074E-01  0.2563477E-02 -0.1327019E+01 -0.4227783E+01
  0.1650000E+01  0.4438921E-03 -0.5493164E-03  0.8870452E+06  0.3100530E+07 -0.2892696E-01  0.1379395E-01  0.3231997E+07  0.5110589E+06  0.5082564E-01 -0.1004028E-01 -0.3460046E+01 -0.5499359E+01
  0.1700000E+01  0.7180606E-04  0.3662109E-03  0.9072451E+06  0.2839758E+07 -0.1177619E-01  0.3280640E-02  0.3317469E+07  0.2382885E+06 -0.8724437E-02  0.1022339E-02 -0.5200500E+01 -0.3780998E+01
  0.1750000E+01  0.7672991E-03 -0.6103516E-03  0.8876184E+06  0.2575655E+07 -0.3041295E-01 -0.6149292E-02  0.3427786E+07 -0.1616097E+06  0.3138951E-02  0.4058838E-02 -0.2813878E+01  0.9996529E+01
  0.1800000E+01 -0.1356337E-03  0.9765625E-03  0.1444170E+07  0.2209144E+07 -0.3553602E-01  0.1373291E-03  0.3608249E+07  0.8062635E+06 -0.2719455E-01 -0.1464844E-02 -0.1074293E+02 -0.3280579E+01
  0.1850000E+01 -0.6103516E-03  0.1770020E-02  0.1284054E+07  0.2237135E+07  0.5252323E-01 -0.8087158E-03  0.3567261E+07  0.1329451E+05  0.3200222E-01  0.4272461E-02 -0.1846379E+01  0.6849060E+01
  0.1900000E+01 -0.3372995E-03  0.1770020E-02  0.1312692E+07  0.2128572E+07 -0.4086143E-01 -0.2052307E-02  0.3654778E+07 -0.1958785E+06 -0.3629986E-01  0.2075195E-02 -0.9154952E+00  0.1645447E+01
  0.1950000E+01  0.1565004E-03  0.1220703E-02  0.1337648E+07  0.1985927E+07  0.4144131E-01 -0.5126953E-02  0.3760888E+07 -0.4241696E+06  0.3320938E-01 -0.6103516E-03 -0.1229874E+01  0.3232117E+00
  0.2000000E+01 -0.1434326E-02 -0.1525879E-02  0.1406651E+07  0.1875701E+07  0.2001953E-01 -0.8544922E-03  0.3823908E+07 -0.5033282E+06  0.9033203E-02 -0.1098633E-02 -0.4268646E+00  0.1308533E+01
  0.2050000E+01 -0.2977325E-04 -0.1831055E-02  0.1447117E+07  0.1754260E+07  0.1524390E-01  0.1228333E-02  0.3908590E+07 -0.6061224E+06 -0.2861209E-01 -0.3662109E-03 -0.2537879E+01  0.3126862E+01
  0.2100000E+01  0.1089914E-03  0.3051758E-03  0.1497901E+07  0.1621471E+07 -0.1499721E-01 -0.1527786E-02  0.3996332E+07 -0.6974219E+06 -0.6030855E-02 -0.1037598E-02 -0.6831942E+00 -0.3030579E+01
  0.2150000E+01  0.3548556E-03 -0.4882812E-03  0.1551724E+07  0.1498479E+07  0.4315043E-02 -0.3833771E-03  0.4079746E+07 -0.7632324E+06 -0.2567025E-01  0.1464844E-02 -0.1935009E+01 -0.2960785E+01
  0.2200000E+01  0.4409931E-03  0.1586914E-02  0.1602449E+07  0.1398634E+07  0.3440163E-02  0.1831055E-03  0.4149738E+07 -0.7904588E+06 -0.7167380E-01  0.6103516E-03 -0.2588526E+01  0.8453064E+00
  0.2250000E+01 -0.4882812E-03  0.1220703E-03  0.1662384E+07  0.1314617E+07  0.3808594E-01  0.3643036E-03  0.4212634E+07 -0.8328057E+06 -0.7427301E-01 -0.9765625E-03 -0.2606120E+01 -0.1203064E+01
  0.2300000E+01 -0.1008407E-02 -0.1831055E-03  0.1704477E+07  0.1246992E+07  0.6772248E-01 -0.8010864E-04  0.4269940E+07 -0.8767026E+06 -0.1300314E-01 -0.4882812E-03 -0.4029117E+00 -0.8428955E-01
  0.2350000E+01  0.7272274E-03 -0.1335144E-03  0.1733782E+07  0.1177850E+07 -0.2140126E-01  0.2012253E-03  0.4324012E+07 -0.9148053E+06  0.1958320E-01 -0.4577637E-04 -0.2537323E+01  0.1701637E+01
  0.2400000E+01 -0.3560384E-03  0.3433228E-04  0.1752888E+07  0.1076575E+07 -0.9541829E-01 -0.2279282E-03  0.4386680E+07 -0.9742034E+06  0.6306966E-02 -0.1907349E-03 -0.2019246E+00  0.3646851E-01
  0.2450000E+01  0.4982462E-04 -0.1525879E-03  0.1750401E+07  0.8892366E+06  0.7174745E-02  0.3492832E-04  0.4502008E+07 -0.1062282E+07  0.9611169E-01  0.3051758E-03 -0.2571075E+01 -0.1635437E+01
  0.2500000E+01 -0.8789062E-03 -0.6103516E-03  0.2103361E+07  0.5045808E+06  0.1503906E-01 -0.5102158E-03  0.4548136E+07 -0.9236251E+04  0.3583984E-01 -0.1098633E-02 -0.3105469E+01 -0.2810181E+01
  0.2550000E+01  0.8138021E-03  0.1220703E-03  0.1987851E+07  0.8877886E+06 -0.5131740E-01  0.9441376E-04  0.4444148E+07 -0.6742171E+06 -0.1369102E-01  0.2441406E-03 -0.7254567E+00 -0.2936401E+01
  0.2600000E+01  0.1913217E-02  0.1220703E-03  0.2005830E+07  0.8770519E+06 -0.3474309E-01 -0.4625320E-04  0.4469302E+07 -0.7910755E+06  0.1845727E-02  0.2441406E-03 -0.3021497E+00  0.3515076E+01
  0.2650000E+01 -0.4865538E-03  0.6103516E-04  0.2019180E+07  0.8255566E+06  0.4108933E-01  0.3995895E-03  0.4520352E+07 -0.8565699E+06 -0.3899052E-01 -0.3662109E-03 -0.3619088E+01 -0.2343140E+01
  0.2700000E+01  0.9946469E-03  0.2441406E-03  0.2046132E+07  0.7732604E+06 -0.1247830E-01  0.2622604E-04  0.4561382E+07 -0.8383579E+06 -0.3385191E-01 -0.4882812E-03  0.1505036E+01  0.2041992E+01
  0.2750000E+01  0.1109730E-02  0.3051758E-03  0.2069165E+07  0.7295002E+06 -0.1384943E-01 -0.7247925E-04  0.4595058E+07 -0.8311405E+06 -0.2328214E-01 -0.4272461E-03  0.2075695E+00 -0.1005402E+01
  0.2800000E+01  0.8991787E-03 -0.6103516E-04  0.2094639E+07  0.6842428E+06  0.4098075E-01  0.1263618E-04  0.4628986E+07 -0.8237394E+06  0.2088274E-01  0.2441406E-03 -0.1404817E+01 -0.9352417E+00
  0.2850000E+01 -0.1306367E-02  0.6103516E-03  0.2121074E+07  0.6329727E+06 -0.4574424E-01 -0.8594990E-04  0.4638442E+07 -0.8051665E+06  0.4111842E-01  0.0000000E+00 -0.4646307E+01 -0.8473511E+00
  0.2900000E+01  0.2567686E-02 -0.2441406E-03  0.2136857E+07  0.5881509E+06 -0.3636853E-01 -0.5599856E-04  0.4679104E+07 -0.7912066E+06 -0.3161200E-01 -0.7324219E-03 -0.2005952E+01 -0.1233551E+01
  0.2950000E+01 -0.3724179E-03 -0.3051758E-04  0.2148571E+07  0.5152595E+06 -0.6057998E-01 -0.2226830E-03  0.4716770E+07 -0.7834517E+06  0.1517396E+00  0.1831055E-03 -0.7310150E+00  0.1498962E+01
  0.3000000E+01 -0.1586914E-02  0.9155273E-04  0.2154624E+07  0.3403984E+06 -0.5371094E-01  0.2861023E-04  0.4804150E+07 -0.7179612E+06 -0.4276530E-01  0.5493164E-03 -0.2577637E+01 -0.2629395E+00