VARIABLES="X" "Y" "Z" "NX" "NY" "NZ" "A"
 ZONE N=        1820 , E=         945  , F=FEPOINT,ET=QUADRILATERAL
   0.4979871E+01   0.4481965E+00  -0.2500000E+01   0.0000000E+00   0.0000000E+00   0.0000000E+00   0.0000000E+00
   0.4979871E+01   0.4481965E+00  -0.2142857E+01   0.0000000E+00   0.0000000E+00   0.0000000E+00   0.0000000E+00
   0.4979871E+01   0.4481965E+00  -0.1785714E+01   0.0000000E+00   0.0000000E+00   0.0000000E+00   0.0000000E+00
   0.4979871E+01   0.4481965E+00  -0.1428571E+01   0.0000000E+00   0.0000000E+00   0.0000000E+00   0.0000000E+00
   0.4979871E+01   0.4481965E+00  -0.1071429E+01   0.0000000E+00   0.0000000E+00   0.0000000E+00   0.0000000E+00
   0.4979871E+01   0.4481965E+00  -0.7142857E+00   0.0000000E+00   0.0000000E+00   0.0000000E+00   0.0000000E+00
   0.4979871E+01   0.4481965E+00  -0.3571429E+00   0.0000000E+00   0.0000000E+00   0.0000000E+00   0.0000000E+00
   0.4979871E+01   0.4481965E+00   0.0000000E+00   0.0000000E+00   0.0000000E+00   0.0000000E+00   0.0000000E+00
   0.4989935E+01   0.2240983E+00  -0.2500000E+01   0.0000000E+00   0.0000000E+00   0.0000000E+00   0.0000000E+00
   0.4989935E+01   0.2240983E+00  -0.2142857E+01   0.0000000E+00   0.0000000E+00   0.0000000E+00   0.0000000E+00
   0.4989935E+01   0.2240983E+00  -0.1785714E+01   0.0000000E+00   0.0000000E+00   0.0000000E+00   0.0000000E+00
   0.4989935E+01   0.2240983E+00  -0.1428571E+01   0.0000000E+00   0.0000000E+00   0.0000000E+00   0.0000000E+00
   0.4989935E+01   0.2240983E+00  -0.1071429E+01   0.0000000E+00   0.0000000E+00   0.0000000E+00   0.0000000E+00
   0.4989935E+01   0.2240983E+00  -0.7142857E+00   0.0000000E+00   0.0000000E+00   0.0000000E+00   0.0000000E+00
   0.4989935E+01   0.2240983E+00  -0.3571429E+00   0.0000000E+00   0.0000000E+00   0.0000000E+00   0.0000000E+00
   0.4989935E+01   0.2240983E+00   0.0000000E+00   0.0000000E+00   0.0000000E+00   0.0000000E+00   0.0000000E+00
   0.5000000E+01   0.0000000E+00  -0.2500000E+01   0.0000000E+00   0.0000000E+00   0.0000000E+00   0.0000000E+00
   0.5000000E+01   0.0000000E+00  -0.2142857E+01   0.0000000E+00   0.0000000E+00   0.0000000E+00   0.0000000E+00
   0.5000000E+01   0.0000000E+00  -0.1785714E+01   0.0000000E+00   0.0000000E+00   0.0000000E+00   0.0000000E+00
   0.5000000E+01   0.0000000E+00  -0.1428571E+01   0.0000000E+00   0.0000000E+00   0.0000000E+00   0.0000000E+00
   0.5000000E+01   0.0000000E+00  -0.1071429E+01   0.0000000E+00   0.0000000E+00   0.0000000E+00   0.0000000E+00
   0.5000000E+01   0.0000000E+00  -0.7142857E+00   0.0000000E+00   0.0000000E+00   0.0000000E+00   0.0000000E+00
   0.5000000E+01   0.0000000E+00  -0.3571429E+00   0.0000000E+00   0.0000000E+00   0.0000000E+00   0.0000000E+00
   0.5000000E+01   0.0000000E+00   0.0000000E+00   0.0000000E+00   0.0000000E+00   0.0000000E+00   0.0000000E+00
   0.4919648E+01   0.8927845E+00  -0.2500000E+01   0.0000000E+00   0.0000000E+00   0.0000000E+00   0.0000000E+00
   0.4919648E+01   0.8927845E+00  -0.2142857E+01   0.0000000E+00   0.0000000E+00   0.0000000E+00   0.0000000E+00
   0.4919648E+01   0.8927845E+00  -0.1785714E+01   0.0000000E+00   0.0000000E+00   0.0000000E+00   0.0000000E+00
   0.4919648E+01   0.8927845E+00  -0.1428571E+01   0.0000000E+00   0.0000000E+00   0.0000000E+00   0.0000000E+00
   0.4919648E+01   0.8927845E+00  -0.1071429E+01   0.0000000E+00   0.0000000E+00   0.0000000E+00   0.0000000E+00
   0.4919648E+01   0.8927845E+00  -0.7142857E+00   0.0000000E+00   0.0000000E+00   0.0000000E+00   0.0000000E+00
   0.4919648E+01   0.8927845E+00  -0.3571429E+00   0.0000000E+00   0.0000000E+00   0.0000000E+00   0.0000000E+00
   0.4919648E+01   0.8927845E+00   0.0000000E+00   0.0000000E+00   0.0000000E+00   0.0000000E+00   0.0000000E+00
   0.4949759E+01   0.6704905E+00  -0.2500000E+01   0.0000000E+00   0.0000000E+00   0.0000000E+00   0.0000000E+00
   0.4949759E+01   0.6704905E+00  -0.2142857E+01   0.0000000E+00   0.0000000E+00   0.0000000E+00   0.0000000E+00
   0.4949759E+01   0.6704905E+00  -0.1785714E+01   0.0000000E+00   0.0000000E+00   0.0000000E+00   0.0000000E+00
   0.4949759E+01   0.6704905E+00  -0.1428571E+01   0.0000000E+00   0.0000000E+00   0.0000000E+00   0.0000000E+00
   0.4949759E+01   0.6704905E+00  -0.1071429E+01   0.0000000E+00   0.0000000E+00   0.0000000E+00   0.0000000E+00
   0.4949759E+01   0.6704905E+00  -0.7142857E+00   0.0000000E+00   0.0000000E+00   0.0000000E+00   0.0000000E+00
   0.4949759E+01   0.6704905E+00  -0.3571429E+00   0.0000000E+00   0.0000000E+00   0.0000000E+00   0.0000000E+00
   0.4949759E+01   0.6704905E+00   0.0000000E+00   0.0000000E+00   0.0000000E+00   0.0000000E+00   0.0000000E+00
   0.4979871E+01   0.4481965E+00  -0.2500000E+01   0.0000000E+00   0.0000000E+00   0.0000000E+00   0.0000000E+00
   0.4979871E+01   0.4481965E+00  -0.2142857E+01   0.0000000E+00   0.0000000E+00   0.0000000E+00   0.0000000E+00
   0.4979871E+01   0.4481965E+00  -0.1785714E+01   0.0000000E+00   0.0000000E+00   0.0000000E+00   0.0000000E+00
   0.4979871E+01   0.4481965E+00  -0.1428571E+01   0.0000000E+00   0.0000000E+00   0.0000000E+00   0.0000000E+00
   0.4979871E+01   0.4481965E+00  -0.1071429E+01   0.0000000E+00   0.0000000E+00   0.0000000E+00   0.0000000E+00
   0.4979871E+01   0.4481965E+00  -0.7142857E+00   0.0000000E+00   0.0000000E+00   0.0000000E+00   0.0000000E+00
   0.4979871E+01   0.4481965E+00  -0.3571429E+00   0.0000000E+00   0.0000000E+00   0.0000000E+00   0.0000000E+00
   0.4979871E+01   0.4481965E+00   0.0000000E+00   0.0000000E+00   0.0000000E+00   0.0000000E+00   0.0000000E+00
   0.4819814E+01   0.1330184E+01  -0.2500000E+01   0.0000000E+00   0.0000000E+00   0.0000000E+00   0.0000000E+00
   0.4819814E+01   0.1330184E+01  -0.2142857E+01   0.0000000E+00   0.0000000E+00   0.0000000E+00   0.0000000E+00
   0.4819814E+01   0.1330184E+01  -0.1785714E+01   0.0000000E+00   0.0000000E+00   0.0000000E+00   0.0000000E+00
   0.4819814E+01   0.1330184E+01  -0.1428571E+01   0.0000000E+00   0.0000000E+00   0.0000000E+00   0.0000000E+00
   0.4819814E+01   0.1330184E+01  -0.1071429E+01   0.0000000E+00   0.0000000E+00   0.0000000E+00   0.0000000E+00
   0.4819814E+01   0.1330184E+01  -0.7142857E+00   0.0000000E+00   0.0000000E+00   0.0000000E+00   0.0000000E+00
   0.4819814E+01   0.1330184E+01  -0.3571429E+00   0.0000000E+00   0.0000000E+00   0.0000000E+00   0.0000000E+00
   0.4819814E+01   0.1330184E+01   0.0000000E+00   0.0000000E+00   0.0000000E+00   0.0000000E+00   0.0000000E+00
   0.4869731E+01   0.1111484E+01  -0.2500000E+01   0.0000000E+00   0.0000000E+00   0.0000000E+00   0.0000000E+00
   0.4869731E+01   0.1111484E+01  -0.2142857E+01   0.0000000E+00   0.0000000E+00   0.0000000E+00   0.0000000E+00
   0.4869731E+01   0.1111484E+01  -0.1785714E+01   0.0000000E+00   0.0000000E+00   0.0000000E+00   0.0000000E+00
   0.4869731E+01   0.1111484E+01  -0.1428571E+01   0.0000000E+00   0.0000000E+00   0.0000000E+00   0.0000000E+00
   0.4869731E+01   0.1111484E+01  -0.1071429E+01   0.0000000E+00   0.0000000E+00   0.0000000E+00   0.0000000E+00
   0.4869731E+01   0.1111484E+01  -0.7142857E+00   0.0000000E+00   0.0000000E+00   0.0000000E+00   0.0000000E+00
   0.4869731E+01   0.1111484E+01  -0.3571429E+00   0.0000000E+00   0.0000000E+00   0.0000000E+00   0.0000000E+00
   0.4869731E+01   0.1111484E+01   0.0000000E+00   0.0000000E+00   0.0000000E+00   0.0000000E+00   0.0000000E+00
   0.4919648E+01   0.8927845E+00  -0.2500000E+01   0.0000000E+00   0.0000000E+00   0.0000000E+00   0.0000000E+00
   0.4919648E+01   0.8927845E+00  -0.2142857E+01   0.0000000E+00   0.0000000E+00   0.0000000E+00   0.0000000E+00
   0.4919648E+01   0.8927845E+00  -0.1785714E+01   0.0000000E+00   0.0000000E+00   0.0000000E+00   0.0000000E+00
   0.4919648E+01   0.8927845E+00  -0.1428571E+01   0.0000000E+00   0.0000000E+00   0.0000000E+00   0.0000000E+00
   0.4919648E+01   0.8927845E+00  -0.1071429E+01   0.0000000E+00   0.0000000E+00   0.0000000E+00   0.0000000E+00
   0.4919648E+01   0.8927845E+00  -0.7142857E+00   0.0000000E+00   0.0000000E+00   0.0000000E+00   0.0000000E+00
   0.4919648E+01   0.8927845E+00  -0.3571429E+00   0.0000000E+00   0.0000000E+00   0.0000000E+00   0.0000000E+00
   0.4919648E+01   0.8927845E+00   0.0000000E+00   0.0000000E+00   0.0000000E+00   0.0000000E+00   0.0000000E+00
   0.4681174E+01   0.1756874E+01  -0.2500000E+01   0.0000000E+00   0.0000000E+00   0.0000000E+00   0.0000000E+00
   0.4681174E+01   0.1756874E+01  -0.2142857E+01   0.0000000E+00   0.0000000E+00   0.0000000E+00   0.0000000E+00
   0.4681174E+01   0.1756874E+01  -0.1785714E+01   0.0000000E+00   0.0000000E+00   0.0000000E+00   0.0000000E+00
   0.4681174E+01   0.1756874E+01  -0.1428571E+01   0.0000000E+00   0.0000000E+00   0.0000000E+00   0.0000000E+00
   0.4681174E+01   0.1756874E+01  -0.1071429E+01   0.0000000E+00   0.0000000E+00   0.0000000E+00   0.0000000E+00
   0.4681174E+01   0.1756874E+01  -0.7142857E+00   0.0000000E+00   0.0000000E+00   0.0000000E+00   0.0000000E+00
   0.4681174E+01   0.1756874E+01  -0.3571429E+00   0.0000000E+00   0.0000000E+00   0.0000000E+00   0.0000000E+00
   0.4681174E+01   0.1756874E+01   0.0000000E+00   0.0000000E+00   0.0000000E+00   0.0000000E+00   0.0000000E+00
   0.4750494E+01   0.1543529E+01  -0.2500000E+01   0.0000000E+00   0.0000000E+00   0.0000000E+00   0.0000000E+00
   0.4750494E+01   0.1543529E+01  -0.2142857E+01   0.0000000E+00   0.0000000E+00   0.0000000E+00   0.0000000E+00
   0.4750494E+01   0.1543529E+01  -0.1785714E+01   0.0000000E+00   0.0000000E+00   0.0000000E+00   0.0000000E+00
   0.4750494E+01   0.1543529E+01  -0.1428571E+01   0.0000000E+00   0.0000000E+00   0.0000000E+00   0.0000000E+00
   0.4750494E+01   0.1543529E+01  -0.1071429E+01   0.0000000E+00   0.0000000E+00   0.0000000E+00   0.0000000E+00
   0.4750494E+01   0.1543529E+01  -0.7142857E+00   0.0000000E+00   0.0000000E+00   0.0000000E+00   0.0000000E+00
   0.4750494E+01   0.1543529E+01  -0.3571429E+00   0.0000000E+00   0.0000000E+00   0.0000000E+00   0.0000000E+00
   0.4750494E+01   0.1543529E+01   0.0000000E+00   0.0000000E+00   0.0000000E+00   0.0000000E+00   0.0000000E+00
   0.4819814E+01   0.1330184E+01  -0.2500000E+01   0.0000000E+00   0.0000000E+00   0.0000000E+00   0.0000000E+00
   0.4819814E+01   0.1330184E+01  -0.2142857E+01   0.0000000E+00   0.0000000E+00   0.0000000E+00   0.0000000E+00
   0.4819814E+01   0.1330184E+01  -0.1785714E+01   0.0000000E+00   0.0000000E+00   0.0000000E+00   0.0000000E+00
   0.4819814E+01   0.1330184E+01  -0.1428571E+01   0.0000000E+00   0.0000000E+00   0.0000000E+00   0.0000000E+00
   0.4819814E+01   0.1330184E+01  -0.1071429E+01   0.0000000E+00   0.0000000E+00   0.0000000E+00   0.0000000E+00
   0.4819814E+01   0.1330184E+01  -0.7142857E+00   0.0000000E+00   0.0000000E+00   0.0000000E+00   0.0000000E+00
   0.4819814E+01   0.1330184E+01  -0.3571429E+00   0.0000000E+00   0.0000000E+00   0.0000000E+00   0.0000000E+00
   0.4819814E+01   0.1330184E+01   0.0000000E+00   0.0000000E+00   0.0000000E+00   0.0000000E+00   0.0000000E+00
   0.4504844E+01   0.2169419E+01  -0.2500000E+01   0.0000000E+00   0.0000000E+00   0.0000000E+00   0.0000000E+00
   0.4504844E+01   0.2169419E+01  -0.2142857E+01   0.0000000E+00   0.0000000E+00   0.0000000E+00   0.0000000E+00
   0.4504844E+01   0.2169419E+01  -0.1785714E+01   0.0000000E+00   0.0000000E+00   0.0000000E+00   0.0000000E+00
   0.4504844E+01   0.2169419E+01  -0.1428571E+01   0.0000000E+00   0.0000000E+00   0.0000000E+00   0.0000000E+00
   0.4504844E+01   0.2169419E+01  -0.1071429E+01   0.0000000E+00   0.0000000E+00   0.0000000E+00   0.0000000E+00
   0.4504844E+01   0.2169419E+01  -0.7142857E+00   0.0000000E+00   0.0000000E+00   0.0000000E+00   0.0000000E+00
   0.4504844E+01   0.2169419E+01  -0.3571429E+00   0.0000000E+00   0.0000000E+00   0.0000000E+00   0.0000000E+00
   0.4504844E+01   0.2169419E+01   0.0000000E+00   0.0000000E+00   0.0000000E+00   0.0000000E+00   0.0000000E+00
   0.4593009E+01   0.1963146E+01  -0.2500000E+01   0.0000000E+00   0.0000000E+00   0.0000000E+00   0.0000000E+00
   0.4593009E+01   0.1963146E+01  -0.2142857E+01   0.0000000E+00   0.0000000E+00   0.0000000E+00   0.0000000E+00
   0.4593009E+01   0.1963146E+01  -0.1785714E+01   0.0000000E+00   0.0000000E+00   0.0000000E+00   0.0000000E+00
   0.4593009E+01   0.1963146E+01  -0.1428571E+01   0.0000000E+00   0.0000000E+00   0.0000000E+00   0.0000000E+00
   0.4593009E+01   0.1963146E+01  -0.1071429E+01   0.0000000E+00   0.0000000E+00   0.0000000E+00   0.0000000E+00
   0.4593009E+01   0.1963146E+01  -0.7142857E+00   0.0000000E+00   0.0000000E+00   0.0000000E+00   0.0000000E+00
   0.4593009E+01   0.1963146E+01  -0.3571429E+00   0.0000000E+00   0.0000000E+00   0.0000000E+00   0.0000000E+00
   0.4593009E+01   0.1963146E+01   0.0000000E+00   0.0000000E+00   0.0000000E+00   0.0000000E+00   0.0000000E+00
   0.4681174E+01   0.1756874E+01  -0.2500000E+01   0.0000000E+00   0.0000000E+00   0.0000000E+00   0.0000000E+00
   0.4681174E+01   0.1756874E+01  -0.2142857E+01   0.0000000E+00   0.0000000E+00   0.0000000E+00   0.0000000E+00
   0.4681174E+01   0.1756874E+01  -0.1785714E+01   0.0000000E+00   0.0000000E+00   0.0000000E+00   0.0000000E+00
   0.4681174E+01   0.1756874E+01  -0.1428571E+01   0.0000000E+00   0.0000000E+00   0.0000000E+00   0.0000000E+00
   0.4681174E+01   0.1756874E+01  -0.1071429E+01   0.0000000E+00   0.0000000E+00   0.0000000E+00   0.0000000E+00
   0.4681174E+01   0.1756874E+01  -0.7142857E+00   0.0000000E+00   0.0000000E+00   0.0000000E+00   0.0000000E+00
   0.4681174E+01   0.1756874E+01  -0.3571429E+00   0.0000000E+00   0.0000000E+00   0.0000000E+00   0.0000000E+00
   0.4681174E+01   0.1756874E+01   0.0000000E+00   0.0000000E+00   0.0000000E+00   0.0000000E+00   0.0000000E+00
   0.4292244E+01   0.2564496E+01  -0.2500000E+01   0.0000000E+00   0.0000000E+00   0.0000000E+00   0.0000000E+00
   0.4292244E+01   0.2564496E+01  -0.2142857E+01   0.0000000E+00   0.0000000E+00   0.0000000E+00   0.0000000E+00
   0.4292244E+01   0.2564496E+01  -0.1785714E+01   0.0000000E+00   0.0000000E+00   0.0000000E+00   0.0000000E+00
   0.4292244E+01   0.2564496E+01  -0.1428571E+01   0.0000000E+00   0.0000000E+00   0.0000000E+00   0.0000000E+00
   0.4292244E+01   0.2564496E+01  -0.1071429E+01   0.0000000E+00   0.0000000E+00   0.0000000E+00   0.0000000E+00
   0.4292244E+01   0.2564496E+01  -0.7142857E+00   0.0000000E+00   0.0000000E+00   0.0000000E+00   0.0000000E+00
   0.4292244E+01   0.2564496E+01  -0.3571429E+00   0.0000000E+00   0.0000000E+00   0.0000000E+00   0.0000000E+00
   0.4292244E+01   0.2564496E+01   0.0000000E+00   0.0000000E+00   0.0000000E+00   0.0000000E+00   0.0000000E+00
   0.4398544E+01   0.2366958E+01  -0.2500000E+01   0.0000000E+00   0.0000000E+00   0.0000000E+00   0.0000000E+00
   0.4398544E+01   0.2366958E+01  -0.2142857E+01   0.0000000E+00   0.0000000E+00   0.0000000E+00   0.0000000E+00
   0.4398544E+01   0.2366958E+01  -0.1785714E+01   0.0000000E+00   0.0000000E+00   0.0000000E+00   0.0000000E+00
   0.4398544E+01   0.2366958E+01  -0.1428571E+01   0.0000000E+00   0.0000000E+00   0.0000000E+00   0.0000000E+00
   0.4398544E+01   0.2366958E+01  -0.1071429E+01   0.0000000E+00   0.0000000E+00   0.0000000E+00   0.0000000E+00
   0.4398544E+01   0.2366958E+01  -0.7142857E+00   0.0000000E+00   0.0000000E+00   0.0000000E+00   0.0000000E+00
   0.4398544E+01   0.2366958E+01  -0.3571429E+00   0.0000000E+00   0.0000000E+00   0.0000000E+00   0.0000000E+00
   0.4398544E+01   0.2366958E+01   0.0000000E+00   0.0000000E+00   0.0000000E+00   0.0000000E+00   0.0000000E+00
   0.4504844E+01   0.2169419E+01  -0.2500000E+01   0.0000000E+00   0.0000000E+00   0.0000000E+00   0.0000000E+00
   0.4504844E+01   0.2169419E+01  -0.2142857E+01   0.0000000E+00   0.0000000E+00   0.0000000E+00   0.0000000E+00
   0.4504844E+01   0.2169419E+01  -0.1785714E+01   0.0000000E+00   0.0000000E+00   0.0000000E+00   0.0000000E+00
   0.4504844E+01   0.2169419E+01  -0.1428571E+01   0.0000000E+00   0.0000000E+00   0.0000000E+00   0.0000000E+00
   0.4504844E+01   0.2169419E+01  -0.1071429E+01   0.0000000E+00   0.0000000E+00   0.0000000E+00   0.0000000E+00
   0.4504844E+01   0.2169419E+01  -0.7142857E+00   0.0000000E+00   0.0000000E+00   0.0000000E+00   0.0000000E+00
   0.4504844E+01   0.2169419E+01  -0.3571429E+00   0.0000000E+00   0.0000000E+00   0.0000000E+00   0.0000000E+00
   0.4504844E+01   0.2169419E+01   0.0000000E+00   0.0000000E+00   0.0000000E+00   0.0000000E+00   0.0000000E+00
   0.4045085E+01   0.2938926E+01  -0.2500000E+01   0.0000000E+00   0.0000000E+00   0.0000000E+00   0.0000000E+00
   0.4045085E+01   0.2938926E+01  -0.2142857E+01   0.0000000E+00   0.0000000E+00   0.0000000E+00   0.0000000E+00
   0.4045085E+01   0.2938926E+01  -0.1785714E+01   0.0000000E+00   0.0000000E+00   0.0000000E+00   0.0000000E+00
   0.4045085E+01   0.2938926E+01  -0.1428571E+01   0.0000000E+00   0.0000000E+00   0.0000000E+00   0.0000000E+00
   0.4045085E+01   0.2938926E+01  -0.1071429E+01   0.0000000E+00   0.0000000E+00   0.0000000E+00   0.0000000E+00
   0.4045085E+01   0.2938926E+01  -0.7142857E+00   0.0000000E+00   0.0000000E+00   0.0000000E+00   0.0000000E+00
   0.4045085E+01   0.2938926E+01  -0.3571429E+00   0.0000000E+00   0.0000000E+00   0.0000000E+00   0.0000000E+00
   0.4045085E+01   0.2938926E+01   0.0000000E+00   0.0000000E+00   0.0000000E+00   0.0000000E+00   0.0000000E+00
   0.4168664E+01   0.2751711E+01  -0.2500000E+01   0.0000000E+00   0.0000000E+00   0.0000000E+00   0.0000000E+00
   0.4168664E+01   0.2751711E+01  -0.2142857E+01   0.0000000E+00   0.0000000E+00   0.0000000E+00   0.0000000E+00
   0.4168664E+01   0.2751711E+01  -0.1785714E+01   0.0000000E+00   0.0000000E+00   0.0000000E+00   0.0000000E+00
   0.4168664E+01   0.2751711E+01  -0.1428571E+01   0.0000000E+00   0.0000000E+00   0.0000000E+00   0.0000000E+00
   0.4168664E+01   0.2751711E+01  -0.1071429E+01   0.0000000E+00   0.0000000E+00   0.0000000E+00   0.0000000E+00
   0.4168664E+01   0.2751711E+01  -0.7142857E+00   0.0000000E+00   0.0000000E+00   0.0000000E+00   0.0000000E+00
   0.4168664E+01   0.2751711E+01  -0.3571429E+00   0.0000000E+00   0.0000000E+00   0.0000000E+00   0.0000000E+00
   0.4168664E+01   0.2751711E+01   0.0000000E+00   0.0000000E+00   0.0000000E+00   0.0000000E+00   0.0000000E+00
   0.4292244E+01   0.2564496E+01  -0.2500000E+01   0.0000000E+00   0.0000000E+00   0.0000000E+00   0.0000000E+00
   0.4292244E+01   0.2564496E+01  -0.2142857E+01   0.0000000E+00   0.0000000E+00   0.0000000E+00   0.0000000E+00
   0.4292244E+01   0.2564496E+01  -0.1785714E+01   0.0000000E+00   0.0000000E+00   0.0000000E+00   0.0000000E+00
   0.4292244E+01   0.2564496E+01  -0.1428571E+01   0.0000000E+00   0.0000000E+00   0.0000000E+00   0.0000000E+00
   0.4292244E+01   0.2564496E+01  -0.1071429E+01   0.0000000E+00   0.0000000E+00   0.0000000E+00   0.0000000E+00
   0.4292244E+01   0.2564496E+01  -0.7142857E+00   0.0000000E+00   0.0000000E+00   0.0000000E+00   0.0000000E+00
   0.4292244E+01   0.2564496E+01  -0.3571429E+00   0.0000000E+00   0.0000000E+00   0.0000000E+00   0.0000000E+00
   0.4292244E+01   0.2564496E+01   0.0000000E+00   0.0000000E+00   0.0000000E+00   0.0000000E+00   0.0000000E+00
   0.3765357E+01   0.3289694E+01  -0.2500000E+01   0.0000000E+00   0.0000000E+00   0.0000000E+00   0.0000000E+00
   0.3765357E+01   0.3289694E+01  -0.2142857E+01   0.0000000E+00   0.0000000E+00   0.0000000E+00   0.0000000E+00
   0.3765357E+01   0.3289694E+01  -0.1785714E+01   0.0000000E+00   0.0000000E+00   0.0000000E+00   0.0000000E+00
   0.3765357E+01   0.3289694E+01  -0.1428571E+01   0.0000000E+00   0.0000000E+00   0.0000000E+00   0.0000000E+00
   0.3765357E+01   0.3289694E+01  -0.1071429E+01   0.0000000E+00   0.0000000E+00   0.0000000E+00   0.0000000E+00
   0.3765357E+01   0.3289694E+01  -0.7142857E+00   0.0000000E+00   0.0000000E+00   0.0000000E+00   0.0000000E+00
   0.3765357E+01   0.3289694E+01  -0.3571429E+00   0.0000000E+00   0.0000000E+00   0.0000000E+00   0.0000000E+00
   0.3765357E+01   0.3289694E+01   0.0000000E+00   0.0000000E+00   0.0000000E+00   0.0000000E+00   0.0000000E+00
   0.3905221E+01   0.3114310E+01  -0.2500000E+01   0.0000000E+00   0.0000000E+00   0.0000000E+00   0.0000000E+00
   0.3905221E+01   0.3114310E+01  -0.2142857E+01   0.0000000E+00   0.0000000E+00   0.0000000E+00   0.0000000E+00
   0.3905221E+01   0.3114310E+01  -0.1785714E+01   0.0000000E+00   0.0000000E+00   0.0000000E+00   0.0000000E+00
   0.3905221E+01   0.3114310E+01  -0.1428571E+01   0.0000000E+00   0.0000000E+00   0.0000000E+00   0.0000000E+00
   0.3905221E+01   0.3114310E+01  -0.1071429E+01   0.0000000E+00   0.0000000E+00   0.0000000E+00   0.0000000E+00
   0.3905221E+01   0.3114310E+01  -0.7142857E+00   0.0000000E+00   0.0000000E+00   0.0000000E+00   0.0000000E+00
   0.3905221E+01   0.3114310E+01  -0.3571429E+00   0.0000000E+00   0.0000000E+00   0.0000000E+00   0.0000000E+00
   0.3905221E+01   0.3114310E+01   0.0000000E+00   0.0000000E+00   0.0000000E+00   0.0000000E+00   0.0000000E+00
   0.4045085E+01   0.2938926E+01  -0.2500000E+01   0.0000000E+00   0.0000000E+00   0.0000000E+00   0.0000000E+00
   0.4045085E+01   0.2938926E+01  -0.2142857E+01   0.0000000E+00   0.0000000E+00   0.0000000E+00   0.0000000E+00
   0.4045085E+01   0.2938926E+01  -0.1785714E+01   0.0000000E+00   0.0000000E+00   0.0000000E+00   0.0000000E+00
   0.4045085E+01   0.2938926E+01  -0.1428571E+01   0.0000000E+00   0.0000000E+00   0.0000000E+00   0.0000000E+00
   0.4045085E+01   0.2938926E+01  -0.1071429E+01   0.0000000E+00   0.0000000E+00   0.0000000E+00   0.0000000E+00
   0.4045085E+01   0.2938926E+01  -0.7142857E+00   0.0000000E+00   0.0000000E+00   0.0000000E+00   0.0000000E+00
   0.4045085E+01   0.2938926E+01  -0.3571429E+00   0.0000000E+00   0.0000000E+00   0.0000000E+00   0.0000000E+00
   0.4045085E+01   0.2938926E+01   0.0000000E+00   0.0000000E+00   0.0000000E+00   0.0000000E+00   0.0000000E+00
   0.3455313E+01   0.3613974E+01  -0.2500000E+01   0.0000000E+00   0.0000000E+00   0.0000000E+00   0.0000000E+00
   0.3455313E+01   0.3613974E+01  -0.2142857E+01   0.0000000E+00   0.0000000E+00   0.0000000E+00   0.0000000E+00
   0.3455313E+01   0.3613974E+01  -0.1785714E+01   0.0000000E+00   0.0000000E+00   0.0000000E+00   0.0000000E+00
   0.3455313E+01   0.3613974E+01  -0.1428571E+01   0.0000000E+00   0.0000000E+00   0.0000000E+00   0.0000000E+00
   0.3455313E+01   0.3613974E+01  -0.1071429E+01   0.0000000E+00   0.0000000E+00   0.0000000E+00   0.0000000E+00
   0.3455313E+01   0.3613974E+01  -0.7142857E+00   0.0000000E+00   0.0000000E+00   0.0000000E+00   0.0000000E+00
   0.3455313E+01   0.3613974E+01  -0.3571429E+00   0.0000000E+00   0.0000000E+00   0.0000000E+00   0.0000000E+00
   0.3455313E+01   0.3613974E+01   0.0000000E+00   0.0000000E+00   0.0000000E+00   0.0000000E+00   0.0000000E+00
   0.3610335E+01   0.3451834E+01  -0.2500000E+01   0.0000000E+00   0.0000000E+00   0.0000000E+00   0.0000000E+00
   0.3610335E+01   0.3451834E+01  -0.2142857E+01   0.0000000E+00   0.0000000E+00   0.0000000E+00   0.0000000E+00
   0.3610335E+01   0.3451834E+01  -0.1785714E+01   0.0000000E+00   0.0000000E+00   0.0000000E+00   0.0000000E+00
   0.3610335E+01   0.3451834E+01  -0.1428571E+01   0.0000000E+00   0.0000000E+00   0.0000000E+00   0.0000000E+00
   0.3610335E+01   0.3451834E+01  -0.1071429E+01   0.0000000E+00   0.0000000E+00   0.0000000E+00   0.0000000E+00
   0.3610335E+01   0.3451834E+01  -0.7142857E+00   0.0000000E+00   0.0000000E+00   0.0000000E+00   0.0000000E+00
   0.3610335E+01   0.3451834E+01  -0.3571429E+00   0.0000000E+00   0.0000000E+00   0.0000000E+00   0.0000000E+00
   0.3610335E+01   0.3451834E+01   0.0000000E+00   0.0000000E+00   0.0000000E+00   0.0000000E+00   0.0000000E+00
   0.3765357E+01   0.3289694E+01  -0.2500000E+01   0.0000000E+00   0.0000000E+00   0.0000000E+00   0.0000000E+00
   0.3765357E+01   0.3289694E+01  -0.2142857E+01   0.0000000E+00   0.0000000E+00   0.0000000E+00   0.0000000E+00
   0.3765357E+01   0.3289694E+01  -0.1785714E+01   0.0000000E+00   0.0000000E+00   0.0000000E+00   0.0000000E+00
   0.3765357E+01   0.3289694E+01  -0.1428571E+01   0.0000000E+00   0.0000000E+00   0.0000000E+00   0.0000000E+00
   0.3765357E+01   0.3289694E+01  -0.1071429E+01   0.0000000E+00   0.0000000E+00   0.0000000E+00   0.0000000E+00
   0.3765357E+01   0.3289694E+01  -0.7142857E+00   0.0000000E+00   0.0000000E+00   0.0000000E+00   0.0000000E+00
   0.3765357E+01   0.3289694E+01  -0.3571429E+00   0.0000000E+00   0.0000000E+00   0.0000000E+00   0.0000000E+00
   0.3765357E+01   0.3289694E+01   0.0000000E+00   0.0000000E+00   0.0000000E+00   0.0000000E+00   0.0000000E+00
   0.3117449E+01   0.3909157E+01  -0.2500000E+01   0.0000000E+00   0.0000000E+00   0.0000000E+00   0.0000000E+00
   0.3117449E+01   0.3909157E+01  -0.2142857E+01   0.0000000E+00   0.0000000E+00   0.0000000E+00   0.0000000E+00
   0.3117449E+01   0.3909157E+01  -0.1785714E+01   0.0000000E+00   0.0000000E+00   0.0000000E+00   0.0000000E+00
   0.3117449E+01   0.3909157E+01  -0.1428571E+01   0.0000000E+00   0.0000000E+00   0.0000000E+00   0.0000000E+00
   0.3117449E+01   0.3909157E+01  -0.1071429E+01   0.0000000E+00   0.0000000E+00   0.0000000E+00   0.0000000E+00
   0.3117449E+01   0.3909157E+01  -0.7142857E+00   0.0000000E+00   0.0000000E+00   0.0000000E+00   0.0000000E+00
   0.3117449E+01   0.3909157E+01  -0.3571429E+00   0.0000000E+00   0.0000000E+00   0.0000000E+00   0.0000000E+00
   0.3117449E+01   0.3909157E+01   0.0000000E+00   0.0000000E+00   0.0000000E+00   0.0000000E+00   0.0000000E+00
   0.3286381E+01   0.3761566E+01  -0.2500000E+01   0.0000000E+00   0.0000000E+00   0.0000000E+00   0.0000000E+00
   0.3286381E+01   0.3761566E+01  -0.2142857E+01   0.0000000E+00   0.0000000E+00   0.0000000E+00   0.0000000E+00
   0.3286381E+01   0.3761566E+01  -0.1785714E+01   0.0000000E+00   0.0000000E+00   0.0000000E+00   0.0000000E+00
   0.3286381E+01   0.3761566E+01  -0.1428571E+01   0.0000000E+00   0.0000000E+00   0.0000000E+00   0.0000000E+00
   0.3286381E+01   0.3761566E+01  -0.1071429E+01   0.0000000E+00   0.0000000E+00   0.0000000E+00   0.0000000E+00
   0.3286381E+01   0.3761566E+01  -0.7142857E+00   0.0000000E+00   0.0000000E+00   0.0000000E+00   0.0000000E+00
   0.3286381E+01   0.3761566E+01  -0.3571429E+00   0.0000000E+00   0.0000000E+00   0.0000000E+00   0.0000000E+00
   0.3286381E+01   0.3761566E+01   0.0000000E+00   0.0000000E+00   0.0000000E+00   0.0000000E+00   0.0000000E+00
   0.3455313E+01   0.3613974E+01  -0.2500000E+01   0.0000000E+00   0.0000000E+00   0.0000000E+00   0.0000000E+00
   0.3455313E+01   0.3613974E+01  -0.2142857E+01   0.0000000E+00   0.0000000E+00   0.0000000E+00   0.0000000E+00
   0.3455313E+01   0.3613974E+01  -0.1785714E+01   0.0000000E+00   0.0000000E+00   0.0000000E+00   0.0000000E+00
   0.3455313E+01   0.3613974E+01  -0.1428571E+01   0.0000000E+00   0.0000000E+00   0.0000000E+00   0.0000000E+00
   0.3455313E+01   0.3613974E+01  -0.1071429E+01   0.0000000E+00   0.0000000E+00   0.0000000E+00   0.0000000E+00
   0.3455313E+01   0.3613974E+01  -0.7142857E+00   0.0000000E+00   0.0000000E+00   0.0000000E+00   0.0000000E+00
   0.3455313E+01   0.3613974E+01  -0.3571429E+00   0.0000000E+00   0.0000000E+00   0.0000000E+00   0.0000000E+00
   0.3455313E+01   0.3613974E+01   0.0000000E+00   0.0000000E+00   0.0000000E+00   0.0000000E+00   0.0000000E+00
   0.2754485E+01   0.4172866E+01  -0.2500000E+01   0.0000000E+00   0.0000000E+00   0.0000000E+00   0.0000000E+00
   0.2754485E+01   0.4172866E+01  -0.2142857E+01   0.0000000E+00   0.0000000E+00   0.0000000E+00   0.0000000E+00
   0.2754485E+01   0.4172866E+01  -0.1785714E+01   0.0000000E+00   0.0000000E+00   0.0000000E+00   0.0000000E+00
   0.2754485E+01   0.4172866E+01  -0.1428571E+01   0.0000000E+00   0.0000000E+00   0.0000000E+00   0.0000000E+00
   0.2754485E+01   0.4172866E+01  -0.1071429E+01   0.0000000E+00   0.0000000E+00   0.0000000E+00   0.0000000E+00
   0.2754485E+01   0.4172866E+01  -0.7142857E+00   0.0000000E+00   0.0000000E+00   0.0000000E+00   0.0000000E+00
   0.2754485E+01   0.4172866E+01  -0.3571429E+00   0.0000000E+00   0.0000000E+00   0.0000000E+00   0.0000000E+00
   0.2754485E+01   0.4172866E+01   0.0000000E+00   0.0000000E+00   0.0000000E+00   0.0000000E+00   0.0000000E+00
   0.2935967E+01   0.4041011E+01  -0.2500000E+01   0.0000000E+00   0.0000000E+00   0.0000000E+00   0.0000000E+00
   0.2935967E+01   0.4041011E+01  -0.2142857E+01   0.0000000E+00   0.0000000E+00   0.0000000E+00   0.0000000E+00
   0.2935967E+01   0.4041011E+01  -0.1785714E+01   0.0000000E+00   0.0000000E+00   0.0000000E+00   0.0000000E+00
   0.2935967E+01   0.4041011E+01  -0.1428571E+01   0.0000000E+00   0.0000000E+00   0.0000000E+00   0.0000000E+00
   0.2935967E+01   0.4041011E+01  -0.1071429E+01   0.0000000E+00   0.0000000E+00   0.0000000E+00   0.0000000E+00
   0.2935967E+01   0.4041011E+01  -0.7142857E+00   0.0000000E+00   0.0000000E+00   0.0000000E+00   0.0000000E+00
   0.2935967E+01   0.4041011E+01  -0.3571429E+00   0.0000000E+00   0.0000000E+00   0.0000000E+00   0.0000000E+00
   0.2935967E+01   0.4041011E+01   0.0000000E+00   0.0000000E+00   0.0000000E+00   0.0000000E+00   0.0000000E+00
   0.3117449E+01   0.3909157E+01  -0.2500000E+01   0.0000000E+00   0.0000000E+00   0.0000000E+00   0.0000000E+00
   0.3117449E+01   0.3909157E+01  -0.2142857E+01   0.0000000E+00   0.0000000E+00   0.0000000E+00   0.0000000E+00
   0.3117449E+01   0.3909157E+01  -0.1785714E+01   0.0000000E+00   0.0000000E+00   0.0000000E+00   0.0000000E+00
   0.3117449E+01   0.3909157E+01  -0.1428571E+01   0.0000000E+00   0.0000000E+00   0.0000000E+00   0.0000000E+00
   0.3117449E+01   0.3909157E+01  -0.1071429E+01   0.0000000E+00   0.0000000E+00   0.0000000E+00   0.0000000E+00
   0.3117449E+01   0.3909157E+01  -0.7142857E+00   0.0000000E+00   0.0000000E+00   0.0000000E+00   0.0000000E+00