VARIABLES="w (rad/s)"
"abs(F   1   1)" "angle(F   1   1)"
"abs(F   1   2)" "angle(F   1   2)"
"abs(F   1   3)" "angle(F   1   3)"
"abs(F   1   4)" "angle(F   1   4)"
"abs(F   1   5)" "angle(F   1   5)"
"abs(F   1   6)" "angle(F   1   6)"
Zone t="Diffraction force - beta =   0.000 deg",I=    95,F=POINT
  0.3000000E+00  0.9376090E+04 -0.1570524E+01  0.2538954E-02 -0.2650130E+01  0.2749637E+05 -0.3055255E+01  0.4437499E-02  0.2730831E+01  0.2435204E+04  0.1569988E+01  0.8447054E-05 -0.1726665E+01
  0.3500000E+00  0.1172549E+05 -0.1570276E+01  0.1061703E-02 -0.2803153E+01  0.3752013E+05 -0.3038254E+01  0.3875989E-01  0.3341936E-01  0.3276620E+04  0.1569379E+01  0.1862109E-04 -0.1622033E+01
  0.4000000E+00  0.1440514E+05 -0.1569801E+01  0.2852104E-02 -0.3005205E+01  0.4905965E+05 -0.3015962E+01  0.2179760E-01 -0.2939220E+01  0.4368016E+04  0.1568335E+01  0.1146642E-04 -0.1633215E+01
  0.4500000E+00  0.1773644E+05 -0.1568927E+01  0.7036580E-02 -0.2908440E+01  0.6193479E+05 -0.2988496E+01  0.9399686E-02  0.2246425E+01  0.5898467E+04  0.1566698E+01  0.2201728E-04  0.1657535E+01
  0.5000000E+00  0.2143441E+05 -0.1567404E+01  0.7264646E-02 -0.2592376E+01  0.7569179E+05 -0.2959129E+01  0.6935822E-01 -0.1337318E+00  0.7710401E+04  0.1564088E+01  0.1192093E-04  0.1570796E+01
  0.5500000E+00  0.2591492E+05 -0.1564956E+01  0.7821997E-02  0.1010475E+01  0.9007778E+05 -0.2928038E+01  0.1009640E-01 -0.1311155E+01  0.1018167E+05  0.1560566E+01  0.1552469E-04 -0.1756144E+01
  0.6000000E+00  0.3084666E+05 -0.1561229E+01  0.1833144E-01 -0.3137535E+01  0.1049254E+06 -0.2898121E+01  0.1312670E-01 -0.1963229E+01  0.1311094E+05  0.1555848E+01  0.2861023E-05 -0.1570796E+01
  0.6500000E+00  0.3605818E+05 -0.1555798E+01  0.1111063E-01 -0.2477623E+01  0.1198551E+06 -0.2869505E+01  0.2340173E-01 -0.9493238E-01  0.1650971E+05  0.1549768E+01  0.4484551E-04 -0.1602700E+01
  0.7000000E+00  0.4208651E+05 -0.1548374E+01  0.1395996E-01 -0.2736829E+01  0.1348827E+06 -0.2842241E+01  0.4449103E-01  0.5226556E+00  0.2092742E+05  0.1543120E+01  0.4768372E-05  0.2214298E+01
  0.7500000E+00  0.4844843E+05 -0.1538364E+01  0.4345601E-02 -0.9217341E-02  0.1496764E+06 -0.2816632E+01  0.5124168E-01 -0.2099444E+01  0.2566976E+05  0.1534894E+01  0.4033716E-04  0.1452306E+01
  0.8000000E+00  0.5480488E+05 -0.1525007E+01  0.3661277E-01 -0.1684124E+01  0.1641498E+06 -0.2792567E+01  0.1691014E+00  0.2968174E+01  0.3132369E+05  0.1526025E+01  0.2266858E-04  0.2551824E+00
  0.8500000E+00  0.6201509E+05 -0.1508537E+01  0.1508299E-01 -0.2551152E+01  0.1778808E+06 -0.2769305E+01  0.8513495E-01  0.1777454E+00  0.3796870E+05  0.1516847E+01  0.3248098E-04 -0.1629552E+01
  0.9000000E+00  0.6951848E+05 -0.1488123E+01  0.4740568E-02  0.2698162E+00  0.1911490E+06 -0.2748600E+01  0.2135547E+00 -0.1191771E+00  0.4586550E+05  0.1508538E+01  0.5854814E-04  0.1357428E+01
  0.9500000E+00  0.7690593E+05 -0.1463018E+01  0.3354690E-01  0.6866086E+00  0.2032626E+06 -0.2728553E+01  0.3903516E+00  0.3084911E+01  0.5401228E+05  0.1499474E+01  0.9690007E-04  0.1748889E+01
  0.9999999E+00  0.8382655E+05 -0.1432503E+01  0.5512310E-02  0.9456697E+00  0.2144230E+06 -0.2710194E+01  0.7942148E-01  0.7397019E+00  0.6325289E+05  0.1491592E+01  0.1450714E-03 -0.1531343E+01
  0.1050000E+01  0.9088548E+05 -0.1398070E+01  0.2710678E-01 -0.1184779E+01  0.2246907E+06 -0.2694244E+01  0.1016623E+00 -0.3027640E+00  0.7479431E+05  0.1487052E+01  0.9544370E-04  0.1610775E+01
  0.1100000E+01  0.9740591E+05 -0.1358971E+01  0.3009480E-01  0.7506819E+00  0.2333938E+06 -0.2678392E+01  0.7979945E-01 -0.2742811E+00  0.8618320E+05  0.1482902E+01  0.2146509E-03 -0.1668697E+01
  0.1150000E+01  0.1028733E+06 -0.1314563E+01  0.2880271E-01  0.9487128E+00  0.2409362E+06 -0.2664401E+01  0.1321888E+00 -0.2380112E+01  0.9900923E+05  0.1482732E+01  0.3438522E-04  0.5880026E+00
  0.1200000E+01  0.1072956E+06 -0.1267103E+01  0.1773001E-01  0.1262373E+01  0.2473391E+06 -0.2652697E+01  0.3107938E-01 -0.2862045E+01  0.1137217E+06  0.1486155E+01  0.3927471E-04 -0.2077895E+01
  0.1250000E+01  0.1100432E+06 -0.1216265E+01  0.5462408E-01 -0.1640102E+01  0.2521668E+06 -0.2641455E+01  0.1132513E+00 -0.4517470E+00  0.1282211E+06  0.1491179E+01  0.1071558E-03  0.1650981E+01
  0.1300000E+01  0.1109849E+06 -0.1163233E+01  0.4318780E-01 -0.2602269E+00  0.2555061E+06 -0.2631315E+01  0.1222707E+00  0.1892912E+01  0.1432371E+06  0.1499136E+01  0.9925546E-04  0.3103150E+01
  0.1350000E+01  0.1098105E+06 -0.1109811E+01  0.2393929E-01 -0.2892513E+01  0.2576240E+06 -0.2623194E+01  0.5662147E-01  0.3098191E+01  0.1590603E+06  0.1509481E+01  0.1230203E-03 -0.1695151E+01
  0.1400000E+01  0.1063743E+06 -0.1055886E+01  0.2947946E-01  0.1066136E+01  0.2584852E+06 -0.2617157E+01  0.1161375E+00 -0.2336474E+01  0.1756550E+06  0.1523199E+01  0.1594548E-03  0.3021689E+01
  0.1450000E+01  0.1004827E+06 -0.1004889E+01  0.2788875E-01  0.1877137E+01  0.2575347E+06 -0.2610398E+01  0.1865819E+00 -0.8618485E+00  0.1898075E+06  0.1533582E+01  0.1780283E-03  0.7853982E+00
  0.1500000E+01  0.9243893E+05 -0.9581683E+00  0.7301262E-01 -0.1723877E+01  0.2553407E+06 -0.2605262E+01  0.3145188E-01  0.1749923E+01  0.2035858E+06  0.1544791E+01  0.1933209E-03 -0.2602865E+01
  0.1550000E+01  0.8226122E+05 -0.9168811E+00  0.1321616E+00 -0.1635439E+01  0.2519410E+06 -0.2601836E+01  0.3118542E-01 -0.2512697E+01  0.2167473E+06  0.1555534E+01  0.5822883E-04 -0.1019141E+01
  0.1600000E+01  0.7034270E+05 -0.8851671E+00  0.6902792E-01 -0.1828870E+01  0.2474008E+06 -0.2600138E+01  0.1441305E+00 -0.2878312E+01  0.2294965E+06  0.1565744E+01  0.1041210E-03  0.2067219E+01
  0.1650000E+01  0.5668369E+05 -0.8692667E+00  0.5392805E-02  0.1687957E+01  0.2414312E+06 -0.2598838E+01  0.2045815E+00 -0.9923077E-01  0.2392941E+06  0.1571152E+01  0.8782092E-04 -0.9707461E+00
  0.1700000E+01  0.4191570E+05 -0.8874834E+00  0.5035726E-01 -0.1619032E+01  0.2343076E+06 -0.2598238E+01  0.7820483E-01 -0.9807915E+00  0.2471158E+06  0.1573171E+01  0.1304827E-03  0.2480550E+01
  0.1750000E+01  0.2658986E+05 -0.9906803E+00  0.2047789E-01 -0.1419705E+01  0.2262490E+06 -0.2598977E+01  0.6901321E-01  0.3756308E+00  0.2537461E+06  0.1573162E+01  0.3075507E-04  0.3017238E+01
  0.1800000E+01  0.1267828E+05 -0.1471125E+01  0.4106584E-01 -0.1730600E+01  0.2172897E+06 -0.2601307E+01  0.1092719E+00 -0.3043758E+01  0.2589801E+06  0.1570363E+01  0.4126226E-04  0.2553590E+01
  0.1850000E+01  0.1364250E+05 -0.2852427E+01  0.7843511E-01 -0.1539154E+01  0.2075230E+06 -0.2604853E+01  0.2108740E-01  0.1985439E+01  0.2632448E+06  0.1565574E+01  0.2002625E-03  0.1261093E+01
  0.1900000E+01  0.2856391E+05  0.3003345E+01  0.2169791E-01  0.9715785E+00  0.1968988E+06 -0.2609181E+01  0.1999312E+00  0.3072305E+01  0.2645647E+06  0.1554386E+01  0.7965322E-04  0.1279340E+01
  0.1950000E+01  0.4518654E+05  0.2903613E+01  0.2710657E-01  0.1404248E+01  0.1857451E+06 -0.2614763E+01  0.2048580E+00  0.1163842E+00  0.2640739E+06  0.1539356E+01  0.8331425E-04  0.2782997E+00
  0.2000000E+01  0.6179288E+05  0.2873112E+01  0.6415374E-01 -0.1519041E+01  0.1741772E+06 -0.2621738E+01  0.2650525E-01  0.7535647E+00  0.2623245E+06  0.1521536E+01  0.1041210E-03  0.2994514E+01
  0.2050000E+01  0.7786127E+05  0.2865596E+01  0.2059664E-01  0.1781832E+01  0.1622593E+06 -0.2630379E+01  0.3547008E-01 -0.2029003E+01  0.2595267E+06  0.1501430E+01  0.1569598E-03 -0.1118018E+01
  0.2100000E+01  0.9309877E+05  0.2868000E+01  0.2005314E-01 -0.5441713E+00  0.1500321E+06 -0.2640099E+01  0.5871717E-01  0.1557650E+00  0.2557634E+06  0.1479407E+01  0.7854943E-04  0.5070984E+00
  0.2150000E+01  0.1072987E+06  0.2874698E+01  0.4996682E-01 -0.1538688E+01  0.1374415E+06 -0.2650031E+01  0.4487105E-01 -0.1740308E+00  0.2510034E+06  0.1455211E+01  0.2376161E-03  0.1474323E+01
  0.2200000E+01  0.1203502E+06  0.2884936E+01  0.3363474E-01 -0.1439710E+01  0.1252604E+06 -0.2663472E+01  0.9359497E-01  0.2853472E+01  0.2442298E+06  0.1424044E+01  0.9536743E-04  0.2498091E+01
  0.2250000E+01  0.1319327E+06  0.2896427E+01  0.1651813E-01 -0.2649333E+01  0.1136743E+06 -0.2680862E+01  0.4233616E-01  0.3114175E+01  0.2366832E+06  0.1391082E+01  0.1902407E-03 -0.2267460E+01
  0.2300000E+01  0.1419079E+06  0.2908069E+01  0.4729717E-01  0.1712047E+01  0.1030131E+06 -0.2703231E+01  0.7623973E-01  0.2965865E+01  0.2284098E+06  0.1356206E+01  0.1521223E-03 -0.1045429E+01
  0.2350000E+01  0.1500631E+06  0.2919518E+01  0.3570957E-01 -0.1854357E+01  0.9682259E+05 -0.2746054E+01  0.8148042E-02 -0.1990304E+01  0.2195801E+06  0.1320625E+01  0.2092962E-03  0.2816960E+01
  0.2400000E+01  0.1562792E+06  0.2930421E+01  0.4199958E-01 -0.1684073E+01  0.6970295E+05 -0.2714204E+01  0.5265385E-01  0.1921917E+00  0.2101696E+06  0.1284137E+01  0.4306904E-03  0.3015040E+01
  0.2450000E+01  0.1605015E+06  0.2940810E+01  0.2902764E-01  0.1933170E+01  0.6542430E+05 -0.2769972E+01  0.7223827E-01  0.2695847E+01  0.2000410E+06  0.1247074E+01  0.9955282E-04 -0.3055269E+01
  0.2500000E+01  0.1626358E+06  0.2950693E+01  0.1616706E-01  0.2375133E+01  0.5678618E+05 -0.2812452E+01  0.3436792E-01  0.2629154E+00  0.1892627E+06  0.1208466E+01  0.1902096E-03  0.2741674E+00
  0.2550000E+01  0.1627092E+06  0.2960851E+01  0.2476748E-01  0.1827589E+01  0.4733921E+05 -0.2845351E+01  0.6770097E-01 -0.1650827E+00  0.1782186E+06  0.1167035E+01  0.2607702E-03 -0.1025799E+00
  0.2600000E+01  0.1606728E+06  0.2970505E+01  0.4422245E-02 -0.1661495E+01  0.3871614E+05 -0.2891554E+01  0.5051467E-01 -0.5056788E+00  0.1669255E+06  0.1127881E+01  0.6823938E-04  0.2677945E+01
  0.2650000E+01  0.1566041E+06  0.2979848E+01  0.1714144E-01  0.1781657E+01  0.3099639E+05 -0.2953037E+01  0.2219048E-02 -0.2292315E+01  0.1553913E+06  0.1090969E+01  0.7287969E-03  0.2962676E+01
  0.2700000E+01  0.1507252E+06  0.2989404E+01  0.1730769E-01  0.1649673E+01  0.2417655E+05 -0.3037106E+01  0.2021088E-01 -0.5750394E+00  0.1437544E+06  0.1059575E+01  0.1927838E-03 -0.2669096E+01
  0.2750000E+01  0.1440586E+06  0.3001206E+01  0.1523011E-01 -0.2231380E+00  0.1831590E+05  0.3126926E+01  0.1337062E-01  0.2335061E+01  0.1329586E+06  0.1033839E+01  0.6348921E-04  0.9994587E+00
  0.2800000E+01  0.2588636E+06 -0.2972917E+01  0.7223126E-02 -0.2363010E+01  0.1351227E+05  0.2946255E+01  0.2789425E-01  0.1773905E+01  0.2080126E+06  0.1645135E+01  0.3365809E-03  0.3109983E+00
  0.2850000E+01  0.1154125E+06  0.3002441E+01  0.4858285E-02  0.2345645E+01  0.9977537E+04  0.2669433E+01  0.1438671E-01  0.1723740E+00  0.1039985E+06  0.9328967E+00  0.2394463E-03  0.3923402E+00
  0.2900000E+01  0.1035488E+06  0.3012432E+01  0.1528035E-01  0.7635952E+00  0.7753913E+04  0.2277399E+01  0.1293276E-01  0.9673619E+00  0.9128855E+05  0.9262717E+00  0.2946962E-03  0.1941688E+01
  0.2950000E+01  0.8959360E+05  0.3020824E+01  0.5084596E-02  0.3388036E+00  0.6894854E+04  0.1810969E+01  0.1165881E-01 -0.2795919E+01  0.7760959E+05  0.9126180E+00  0.7688768E-04 -0.1695151E+01
  0.3000000E+01  0.7448569E+05  0.3028533E+01  0.3257626E-02  0.2980469E+01  0.7219673E+04  0.1409097E+01  0.1047482E-01 -0.3422798E+00  0.6446808E+05  0.9031504E+00  0.8897326E-04 -0.2111216E+01
  0.3050000E+01  0.5867386E+05  0.3036481E+01  0.1317221E-02  0.2248477E+01  0.7965423E+04  0.1131130E+01  0.8180337E-02 -0.2196689E+01  0.5170877E+05  0.9094962E+00  0.1125214E-03  0.2795718E+01
  0.3100000E+01  0.4249103E+05  0.3046968E+01  0.3673418E-02 -0.8786286E-01  0.8700449E+04  0.9398162E+00  0.5493603E-02 -0.2159774E+01  0.3956774E+05  0.9435007E+00  0.1032262E-03  0.1851634E+01
  0.3150000E+01  0.2631124E+05  0.3062355E+01  0.3817191E-02  0.2092577E+01  0.9188679E+04  0.8015589E+00  0.1007263E-01  0.9156635E+00  0.2817281E+05  0.1033824E+01  0.5340576E-04 -0.3141592E+01
  0.3200000E+01  0.1054500E+05  0.3107519E+01  0.1211188E-01  0.1552055E+01  0.9318428E+04  0.6848952E+00  0.7180732E-02  0.1795948E+01  0.1826359E+05  0.1250503E+01  0.1245485E-03  0.2442933E+01
  0.3250000E+01  0.4561055E+04 -0.2493462E+00  0.4675038E-02 -0.2490748E+01  0.9000134E+04  0.5513299E+00  0.1068886E-02 -0.2319595E+01  0.1167633E+05  0.1785777E+01  0.9984017E-04 -0.7583777E+00
  0.3300000E+01  0.1851761E+05 -0.1271216E+00  0.1157413E-01 -0.2255328E+00  0.1517888E+05 -0.4433238E+00  0.5489483E-02  0.2682257E+01  0.1204869E+05  0.2582465E+01  0.8401000E-04  0.3096169E+01
  0.3350000E+01  0.3114093E+05 -0.1066018E+00  0.1188364E-01  0.1239428E+01  0.9657963E+04  0.6573316E+00  0.7172857E-02  0.5728094E+00  0.1739495E+05  0.3019265E+01  0.7676930E-04  0.2677945E+01
  0.3400000E+01  0.4212817E+05 -0.9572908E-01  0.4230202E-02  0.2877585E+01  0.8239634E+04  0.5768067E+00  0.4705920E-02 -0.2709263E+01  0.2348738E+05 -0.3082061E+01  0.6823938E-04 -0.2034444E+01
  0.3450000E+01  0.5127162E+05 -0.8693154E-01  0.3629365E-02  0.2470340E+01  0.7102011E+04  0.4966609E+00  0.8863180E-02  0.3765577E+00  0.2891623E+05 -0.2996185E+01  0.3305001E-04 -0.8058035E+00
  0.3500000E+01  0.5837817E+05 -0.7838194E-01  0.2853739E-02  0.8414757E+00  0.6043810E+04  0.4261689E+00  0.5982066E-02  0.2600011E+01  0.3322483E+05 -0.2950863E+01  0.1373602E-03  0.8412710E+00
  0.3550000E+01  0.6330269E+05 -0.6759504E-01  0.6135168E-02 -0.1427767E+01  0.5013708E+04  0.3496217E+00  0.5820512E-03 -0.2513760E+01  0.3617312E+05 -0.2920793E+01  0.1028201E-03 -0.2434978E+01
  0.3600000E+01  0.6598565E+05 -0.5215452E-01  0.4798545E-02  0.1008152E+01  0.4024277E+04  0.2681969E+00  0.5590041E-02 -0.2026662E+01  0.3762380E+05 -0.2894006E+01  0.1545776E-03 -0.2866683E+01
  0.3650000E+01  0.6654177E+05 -0.1838242E-01  0.3505453E-02 -0.1202314E+01  0.3095465E+04  0.1735603E+00  0.6297579E-02  0.2038186E+01  0.3767601E+05 -0.2851683E+01  0.2059937E-03 -0.3141592E+01
  0.3700000E+01  0.6410862E+05  0.2172740E+00  0.1158727E-02  0.2009412E+01  0.2245131E+04  0.4639573E-01  0.4759491E-02  0.7654901E+00  0.3556657E+05 -0.2587631E+01  0.1060596E-03  0.6578886E+00
  0.3750000E+01  0.5843858E+05 -0.2006718E+00  0.2398763E-02 -0.1665560E+01  0.1511709E+04 -0.1536428E+00  0.4263178E-02 -0.8438196E+00  0.3342492E+05 -0.3053370E+01  0.3618939E-04  0.1249046E+01
  0.3800000E+01  0.5404075E+05 -0.1276542E+00  0.1248609E-02 -0.1163197E+01  0.9546008E+03 -0.5183948E+00  0.1997394E-02 -0.1282741E+01  0.3052623E+05 -0.2969982E+01  0.1497117E-03 -0.2347186E+01
  0.3850000E+01  0.4694982E+05 -0.1057386E+00  0.2679597E-02  0.1430107E+01  0.6806096E+03 -0.1198349E+01  0.5309853E-02 -0.2844274E+01  0.2619422E+05 -0.2939079E+01  0.1907349E-04 -0.3141592E+01
  0.3900000E+01  0.3842708E+05 -0.9251390E-01  0.1003776E-02  0.1873104E+00  0.7550635E+03 -0.1901211E+01  0.1184881E-02  0.8894876E+00  0.2118027E+05 -0.2913751E+01  0.1292152E-03 -0.9730704E+00
  0.3950000E+01  0.2898981E+05 -0.8266065E-01  0.2138316E-02  0.1614964E+01  0.9526475E+03 -0.2296000E+01  0.1038103E-02  0.5879389E+00  0.1590051E+05 -0.2880152E+01  0.1059909E-03 -0.5280744E+00
  0.4000000E+01  0.1898468E+05 -0.7310317E-01  0.2138924E-02  0.2218935E+01  0.1119255E+04 -0.2565782E+01  0.1558191E-02  0.1489612E+01  0.1055372E+05 -0.2813078E+01  0.4640780E-04 -0.1735945E+01
  0.4050000E+01  0.8786657E+04 -0.5704886E-01  0.5158301E-02 -0.2260090E+01  0.1183101E+04 -0.2863486E+01  0.6661754E-03 -0.2972943E+01  0.5326252E+04 -0.2610012E+01  0.8374976E-04 -0.1046001E+01
  0.4100000E+01  0.1187207E+04  0.2927618E+01  0.3755533E-02  0.1028025E+01  0.1601004E+04  0.2784951E+01  0.1558933E-02 -0.3085895E+01  0.2120622E+04 -0.1283156E+01  0.1206313E-03 -0.3217506E+00
  0.4150000E+01  0.1047443E+05  0.3061800E+01  0.3452461E-02 -0.2602642E+01  0.2043824E+04 -0.2451651E+01  0.2965352E-02  0.2116373E+01  0.5523870E+04 -0.2566543E+00  0.4213470E-04  0.9065989E-01
  0.4200000E+01  0.1873748E+05  0.3076402E+01  0.1580032E-02  0.1240075E+01  0.1450889E+04 -0.2702715E+01  0.2537442E-02  0.1172084E+01  0.9440885E+04 -0.8671094E-01  0.1226204E-03  0.2676163E+00
  0.4250000E+01  0.2563688E+05  0.3088095E+01  0.1092689E-02 -0.2884125E+01  0.1238345E+04 -0.2820027E+01  0.6373987E-03 -0.3733086E+00  0.1262434E+05 -0.2273948E-01  0.7534027E-04 -0.1570796E+01
  0.4300000E+01  0.3092637E+05  0.3103065E+01  0.3057622E-02  0.1660745E+01  0.1037093E+04 -0.2899636E+01  0.3323529E-03  0.8155844E+00  0.1492800E+05  0.1710333E-01  0.1621246E-03 -0.1535438E+00
  0.4350000E+01  0.3437330E+05  0.3128502E+01  0.1182778E-02 -0.1590149E+01  0.8118834E+03 -0.2957597E+01  0.4965797E-02  0.1633217E+01  0.1622425E+05  0.5607846E-01  0.1303851E-03  0.1025799E+00
  0.4400000E+01  0.3558023E+05 -0.3097750E+01  0.9606564E-03  0.1385082E+01  0.5678643E+03 -0.3011949E+01  0.8607553E-03  0.3944715E+00  0.1620832E+05  0.1208555E+00  0.3757041E-04  0.1989021E+01
  0.4450000E+01  0.3061430E+05 -0.2791766E+01  0.2431833E-02 -0.1508402E+01  0.3309961E+03 -0.3091930E+01  0.3112546E-03 -0.5841785E+00  0.1144395E+05  0.4438153E+00  0.1621246E-03 -0.2988049E+01
  0.4500000E+01  0.3484074E+05  0.2783011E+01  0.1546061E-02 -0.1796624E+01  0.1068567E+03  0.2937762E+01  0.7101732E-03 -0.1609078E+01  0.1787038E+05 -0.2956109E+00  0.3838465E-04 -0.2034444E+01
  0.4550000E+01  0.3153342E+05  0.2956395E+01  0.1332550E-02 -0.1358803E+01  0.1018500E+03  0.4421880E+00  0.1987406E-02  0.1514864E+01  0.1487437E+05 -0.1191306E+00  0.7506816E-04 -0.2666582E+01
  0.4600000E+01  0.2647613E+05  0.3001797E+01  0.1786637E-02 -0.4566055E+00  0.2750835E+03  0.1128513E+00  0.3268928E-03  0.1582101E+01  0.1217602E+05 -0.6877797E-01  0.1132265E-03  0.2572279E+01
  0.4650000E+01  0.2037892E+05  0.3025802E+01  0.9924996E-03  0.2100669E+01  0.4127251E+03 -0.7583871E-01  0.7261657E-03  0.2197729E+00  0.9210646E+04 -0.3741875E-01  0.4888918E-04  0.1929567E+01
  0.4700000E+01  0.1349730E+05  0.3042209E+01  0.8743821E-04  0.1378748E+01  0.5510085E+03 -0.3193550E+00  0.1010004E-02 -0.3099444E+01  0.6000992E+04 -0.4020900E-02  0.2503282E-04 -0.2275290E+01
  0.4750000E+01  0.6287550E+04  0.3056493E+01  0.9939922E-03  0.1405402E+00  0.7751126E+03 -0.5519543E+00  0.1488656E-02 -0.1651603E+01  0.2750671E+04  0.7143006E-01  0.2224332E-04  0.2111216E+01
  0.4800000E+01  0.8033113E+03 -0.1197907E+00  0.2665643E-02  0.1101549E+01  0.2298926E+04 -0.6239061E+00  0.1615179E-02 -0.1122795E+01  0.4832262E+03  0.2355697E+01  0.4613261E-04  0.2089942E+01
  0.4850000E+01  0.7370963E+04 -0.7253778E-01  0.8339827E-03  0.7190452E+00  0.1040216E+04  0.6130989E+00  0.3134178E-02 -0.5742673E+00  0.3100576E+04  0.3005010E+01  0.9377097E-04  0.1489344E+01
  0.4900000E+01  0.1303112E+05 -0.5702409E-01  0.7694373E-03  0.3032304E+01  0.6732738E+03  0.3225133E+00  0.4186573E-03  0.1722720E+01  0.5292717E+04  0.3058152E+01  0.3259279E-04 -0.2782822E+01
  0.4950000E+01  0.1744049E+05 -0.3603038E-01  0.8327686E-03  0.2856605E+01  0.5371949E+03  0.1761390E+00  0.6837657E-03  0.1733057E+01  0.6837931E+04  0.3088578E+01  0.1030801E-03  0.4019824E-01
  0.5000000E+01  0.2024780E+05  0.2060573E-02  0.1777521E-02  0.1644904E+01  0.4024932E+03  0.9960010E-01  0.1029018E-02 -0.1704053E+01  0.7584488E+04  0.3128057E+01  0.6815937E-04 -0.3129012E+00
