VARIABLES="w (rad/s)"
"abs(F   1   1)" "angle(F   1   1)"
"abs(F   1   2)" "angle(F   1   2)"
"abs(F   1   3)" "angle(F   1   3)"
"abs(F   1   4)" "angle(F   1   4)"
"abs(F   1   5)" "angle(F   1   5)"
"abs(F   1   6)" "angle(F   1   6)"
Zone t="Diffraction force - beta =   0.000 deg",I=    95,F=POINT
  0.3000000E+00  0.3141079E+05 -0.1570714E+01  0.1173008E-02 -0.1687475E+01  0.7432051E+06 -0.3190279E-02  0.4707580E+00  0.3804514E-02  0.2443077E+05 -0.1570715E+01  0.1850357E-04 -0.7170120E+00
  0.3500000E+00  0.3903802E+05 -0.1570640E+01  0.2761218E-02 -0.1774633E+00  0.7267577E+06 -0.5325572E-02  0.1964556E+00  0.5009762E-02  0.2979590E+05 -0.1570637E+01  0.3631483E-04  0.1165905E+01
  0.4000000E+00  0.4790764E+05 -0.1570497E+01  0.9444430E-02 -0.3133451E+01  0.7078947E+06 -0.8683891E-02  0.1694762E-01 -0.2331598E+00  0.3587876E+05 -0.1570494E+01  0.6521740E-04  0.3900104E+00
  0.4500000E+00  0.5849790E+05 -0.1570229E+01  0.1021033E-01 -0.2964440E+01  0.6868722E+06 -0.1375118E-01  0.8014545E+00  0.7247921E-02  0.4263062E+05 -0.1570230E+01  0.1201024E-03  0.2571210E+01
  0.5000000E+00  0.7057727E+05 -0.1569766E+01  0.1192406E-01 -0.2797236E+01  0.6642099E+06 -0.2067940E-01  0.9634768E+00 -0.1059232E-01  0.5021587E+05 -0.1569766E+01  0.1289904E-03  0.1009454E+01
  0.5500000E+00  0.8449350E+05 -0.1569005E+01  0.9788628E-02  0.2247667E+01  0.6402568E+06 -0.2982162E-01  0.2136439E+00 -0.3089163E+01  0.5811443E+05 -0.1569004E+01  0.6312286E-04  0.2671188E+01
  0.6000000E+00  0.9977904E+05 -0.1567838E+01  0.1651601E-01  0.3103531E+01  0.6152165E+06 -0.4112672E-01  0.5221200E+00 -0.2249394E-01  0.6630624E+05 -0.1567839E+01  0.2993079E-04 -0.2105751E+01
  0.6500000E+00  0.1161239E+06 -0.1566139E+01  0.2173561E-01 -0.2815621E+01  0.5895216E+06 -0.5466511E-01  0.9436234E+00 -0.3140317E+01  0.7456037E+05 -0.1566139E+01  0.6724081E-04 -0.8506319E+00
  0.7000000E+00  0.1339508E+06 -0.1563752E+01  0.4322493E-01 -0.3006431E+01  0.5632191E+06 -0.7068323E-01  0.5342975E+00  0.3943537E-01  0.8214313E+05 -0.1563745E+01  0.5068849E-04  0.1779262E+01
  0.7500000E+00  0.1526807E+06 -0.1560506E+01  0.3519790E-02  0.3003240E+01  0.5366631E+06 -0.8916352E-01  0.7413635E-01 -0.2593831E+01  0.8959462E+05 -0.1560514E+01  0.1261484E-03 -0.2329462E+01
  0.8000000E+00  0.1718845E+06 -0.1556201E+01  0.4144247E-01 -0.1130769E+01  0.5099882E+06 -0.1102973E+00  0.1470093E+00  0.2925342E+01  0.9619101E+05 -0.1556224E+01  0.1128604E-03 -0.1646921E+01
  0.8500000E+00  0.1923272E+06 -0.1550732E+01  0.9083463E-02 -0.1832250E+01  0.4836742E+06 -0.1341776E+00  0.1340767E+00  0.1293026E+00  0.1017232E+06 -0.1550667E+01  0.1532777E-03  0.1280532E+01
  0.9000000E+00  0.2133427E+06 -0.1543884E+01  0.1100278E-01  0.3212572E+00  0.4573676E+06 -0.1607407E+00  0.1514160E+00 -0.1469528E+00  0.1058045E+06 -0.1543824E+01  0.3158664E-04 -0.5041662E+00
  0.9500000E+00  0.2344001E+06 -0.1535496E+01  0.4862024E-01  0.4300666E+00  0.4318623E+06 -0.1900651E+00  0.3965141E+00  0.3086833E+01  0.1093192E+06 -0.1535580E+01  0.1801107E-03  0.1666250E+01
  0.9999999E+00  0.2550095E+06 -0.1525466E+01  0.9416998E-02  0.2780458E+01  0.4069008E+06 -0.2221697E+00  0.2175352E+00  0.2432306E+00  0.1113033E+06 -0.1525816E+01  0.1821992E-03 -0.1749713E+01
  0.1050000E+01  0.2756312E+06 -0.1514094E+01  0.2292374E-01 -0.1492692E+01  0.3823465E+06 -0.2570298E+00  0.4247635E+00 -0.8554724E-01  0.1104290E+06 -0.1514111E+01  0.6394598E-04  0.1873681E+01
  0.1100000E+01  0.2954189E+06 -0.1501418E+01  0.4193148E-01  0.5025014E+00  0.3590472E+06 -0.2946922E+00  0.1337695E+00 -0.2996619E+01  0.1090461E+06 -0.1501363E+01  0.1615401E-03  0.1170557E+01
  0.1150000E+01  0.3136723E+06 -0.1487581E+01  0.3106453E-01  0.8618088E+00  0.3364399E+06 -0.3351500E+00  0.3310506E+00 -0.2886837E+01  0.1054312E+06 -0.1488108E+01  0.3495031E-03  0.1288749E+01
  0.1200000E+01  0.3302541E+06 -0.1473486E+01  0.2079273E-01  0.1862135E+01  0.3144265E+06 -0.3784110E+00  0.1782193E+00 -0.7232471E-01  0.9903697E+05 -0.1473567E+01  0.7612783E-03  0.1646031E+01
  0.1250000E+01  0.3443743E+06 -0.1459637E+01  0.5393297E-01 -0.1583855E+01  0.2936248E+06 -0.4244695E+00  0.4553745E+00 -0.3048607E+01  0.9187322E+05 -0.1459567E+01  0.3172526E-03  0.1633965E+01
  0.1300000E+01  0.3557895E+06 -0.1446834E+01  0.4572842E-01 -0.2851864E+00  0.2738508E+06 -0.4731600E+00  0.2037149E+00  0.6243135E+00  0.8310805E+05 -0.1447079E+01  0.1582525E-03 -0.2873226E+01
  0.1350000E+01  0.3641569E+06 -0.1436253E+01  0.8594415E-02 -0.2581201E+01  0.2547528E+06 -0.5248396E+00  0.1059395E+00 -0.5328998E-02  0.7240059E+05 -0.1435763E+01  0.6289625E-03 -0.1674086E+01
  0.1400000E+01  0.3692827E+06 -0.1428461E+01  0.2322274E-01  0.1745059E+01  0.2363340E+06 -0.5795611E+00  0.8332936E+00 -0.3057609E+01  0.5970093E+05 -0.1430343E+01  0.2156991E-03 -0.2761086E+01
  0.1450000E+01  0.3711242E+06 -0.1425109E+01  0.2945669E-01  0.1161964E+01  0.2194824E+06 -0.6365048E+00  0.3487174E+00 -0.4245443E+00  0.4836696E+05 -0.1424264E+01  0.3692579E-03  0.1222908E+01
  0.1500000E+01  0.3700704E+06 -0.1426665E+01  0.7204874E-01 -0.1740132E+01  0.2033925E+06 -0.6964461E+00  0.5698900E-01  0.2604387E+01  0.3623938E+05 -0.1424193E+01  0.2281256E-03 -0.3041092E+01
  0.1550000E+01  0.3662514E+06 -0.1433742E+01  0.1329385E+00 -0.1616266E+01  0.1880353E+06 -0.7595438E+00  0.1473759E-01 -0.1818976E+01  0.2362540E+05 -0.1430315E+01  0.1713644E-03  0.1277208E+01
  0.1600000E+01  0.3602215E+06 -0.1446838E+01  0.6865906E-01 -0.1694510E+01  0.1734010E+06 -0.8261471E+00  0.5213629E+00 -0.3071756E+01  0.1036846E+05 -0.1458727E+01  0.5504941E-04 -0.1815776E+01
  0.1650000E+01  0.3521459E+06 -0.1466723E+01  0.7149155E-02  0.1227889E+01  0.1598623E+06 -0.8947242E+00  0.3099194E+00 -0.5819131E-01  0.8366134E+03  0.1672607E+01  0.6264588E-03 -0.1448707E+01
  0.1700000E+01  0.3427416E+06 -0.1493506E+01  0.5062591E-01 -0.1655678E+01  0.1472555E+06 -0.9660534E+00  0.3282712E+00 -0.2954493E+01  0.1096062E+05  0.1624354E+01  0.6239246E-03  0.1653430E+01
  0.1750000E+01  0.3322883E+06 -0.1526921E+01  0.2028447E-01 -0.1296732E+01  0.1353948E+06 -0.1040947E+01  0.1749488E+00  0.2944847E+01  0.2075757E+05  0.1599715E+01  0.4568072E-03 -0.1682721E+01
  0.1800000E+01  0.3210273E+06 -0.1566866E+01  0.4321793E-01 -0.1810648E+01  0.1242210E+06 -0.1119229E+01  0.2638819E-01 -0.3595592E+00  0.2995307E+05  0.1567048E+01  0.2375243E-03  0.2091935E+01
  0.1850000E+01  0.3093595E+06 -0.1613077E+01  0.7273030E-01 -0.1653907E+01  0.1138077E+06 -0.1200993E+01  0.1624159E+00  0.1242261E+00  0.3890872E+05  0.1535455E+01  0.2725057E-03  0.1369969E+01
  0.1900000E+01  0.2974489E+06 -0.1666053E+01  0.3091546E-01  0.6887703E+00  0.1041848E+06 -0.1284645E+01  0.5935658E-01  0.3016814E+01  0.4564729E+05  0.1475543E+01  0.1008120E-02  0.1616219E+01
  0.1950000E+01  0.2856633E+06 -0.1725131E+01  0.2867723E-01  0.1155979E+01  0.9526586E+05 -0.1372115E+01  0.5325028E+00  0.4222113E-01  0.5128994E+05  0.1408231E+01  0.7287969E-03  0.1465919E+01
  0.2000000E+01  0.2740111E+06 -0.1789980E+01  0.6181799E-01 -0.1408782E+01  0.8702302E+05 -0.1463572E+01  0.3895316E+00  0.3109056E-01  0.5631771E+05  0.1339376E+01  0.2558978E-03  0.2034444E+01
  0.2050000E+01  0.2625426E+06 -0.1860160E+01  0.1974487E-01  0.2006922E+01  0.7938893E+05 -0.1558686E+01  0.3620913E-01 -0.9883820E+00  0.6084388E+05  0.1270668E+01  0.4459934E-03 -0.1311296E+01
  0.2100000E+01  0.2513439E+06 -0.1935451E+01  0.2451561E-01 -0.6943898E+00  0.7238715E+05 -0.1655801E+01  0.6938874E-01  0.1343193E+00  0.6484144E+05  0.1202550E+01  0.8661967E-03  0.1473757E+01
  0.2150000E+01  0.2404281E+06 -0.2015822E+01  0.5036715E-01 -0.1457134E+01  0.6594204E+05 -0.1751122E+01  0.2680037E-01 -0.2977344E+01  0.6821652E+05  0.1132550E+01  0.8252438E-04  0.9827952E+00
  0.2200000E+01  0.2300470E+06 -0.2101358E+01  0.3196177E-01 -0.1613358E+01  0.6006229E+05 -0.1856136E+01  0.4040314E-01  0.2441772E+01  0.7039562E+05  0.1038729E+01  0.1603988E-03  0.2699218E+01
  0.2250000E+01  0.2201117E+06 -0.2191326E+01  0.1964330E-01 -0.2646066E+01  0.5491416E+05 -0.1972635E+01  0.4007761E-01 -0.7571915E-01  0.7214911E+05  0.9442134E+00  0.1948882E-03 -0.2352734E+01
  0.2300000E+01  0.2105901E+06 -0.2285730E+01  0.4669933E-01  0.1614635E+01  0.5076834E+05 -0.2103854E+01  0.1578269E+00  0.3056022E+01  0.7348480E+05  0.8474517E+00  0.1323788E-03 -0.6319736E+00
  0.2350000E+01  0.2014533E+06 -0.2384171E+01  0.3535806E-01 -0.1954339E+01  0.5023096E+05 -0.2304507E+01  0.6790879E-01 -0.3127058E+01  0.7438636E+05  0.7513041E+00  0.1328177E-03 -0.2924481E+01
  0.2400000E+01  0.1926743E+06 -0.2486658E+01  0.4358692E-01 -0.1428845E+01  0.3424144E+05 -0.2137342E+01  0.1088045E+00  0.1104181E+00  0.7483464E+05  0.6532886E+00  0.4002355E-03  0.2834159E+01
  0.2450000E+01  0.1842963E+06 -0.2593256E+01  0.2920813E-01  0.1940195E+01  0.3482270E+05 -0.2390778E+01  0.7080755E-01  0.2600118E+01  0.7469923E+05  0.5512868E+00  0.7698374E-04 -0.2672405E+01
  0.2500000E+01  0.1763128E+06 -0.2703754E+01  0.1390830E-01  0.2189974E+01  0.3241470E+05 -0.2539637E+01  0.4268399E-01  0.2913648E+00  0.7422328E+05  0.4421661E+00  0.2213640E-03  0.6555641E+00
  0.2550000E+01  0.1688452E+06 -0.2817566E+01  0.2628338E-01  0.2226689E+01  0.2916651E+05 -0.2647971E+01  0.4193610E-01 -0.1344237E+00  0.7392915E+05  0.3267088E+00  0.2671378E-03 -0.2856372E-01
  0.2600000E+01  0.1617709E+06 -0.2934882E+01  0.3228387E-02 -0.2128644E+01  0.2615545E+05 -0.2766595E+01  0.8330550E-01 -0.2555540E+00  0.7319684E+05  0.2131607E+00  0.1076934E-03 -0.2741352E+01
  0.2650000E+01  0.1551357E+06 -0.3055422E+01  0.1710473E-01  0.1881651E+01  0.2345929E+05 -0.2891326E+01  0.2445423E-01 -0.2944349E+01  0.7208962E+05  0.9954877E-01  0.6943168E-03  0.3130605E+01
  0.2700000E+01  0.1490843E+06  0.3104732E+01  0.1745225E-01  0.1644744E+01  0.2102671E+05 -0.3021383E+01  0.2258240E-01 -0.4925805E+00  0.7033498E+05 -0.1084319E-01  0.3456460E-03 -0.2403035E+01
  0.2750000E+01  0.1444744E+06  0.2982126E+01  0.2091273E-01 -0.7296466E-02  0.1885016E+05  0.3127341E+01  0.1950346E-01  0.2640237E+01  0.6841191E+05 -0.1082420E+00  0.2600997E-03  0.1497399E+01
  0.2800000E+01  0.2561280E+06 -0.3055974E+01  0.1124236E-01 -0.2595834E+01  0.1692082E+05  0.2985966E+01  0.2827029E-01  0.1492183E+01  0.9164860E+05  0.1740174E+01  0.3253470E-03  0.8216756E-01
  0.2850000E+01  0.1267065E+06  0.2695316E+01  0.5418706E-02  0.9983168E+00  0.1525831E+05  0.2839620E+01  0.7270430E-02  0.2952699E+01  0.6834302E+05 -0.4365983E+00  0.2485122E-03  0.3120422E+00
  0.2900000E+01  0.1227436E+06  0.2561827E+01  0.1498643E-01  0.9286188E+00  0.1364609E+05  0.2694697E+01  0.3162688E-01  0.2967697E+00  0.6485940E+05 -0.5630281E+00  0.3584395E-03  0.1862253E+01
  0.2950000E+01  0.1181681E+06  0.2422897E+01  0.2956068E-02  0.7791244E+00  0.1199044E+05  0.2548987E+01  0.1148199E-01 -0.2813623E+01  0.6277148E+05 -0.7132077E+00  0.4041601E-04  0.1234122E+01
  0.3000000E+01  0.1136185E+06  0.2280213E+01  0.5654503E-02  0.2977598E+01  0.1048968E+05  0.2394804E+01  0.6367620E-02 -0.4450595E+00  0.6118595E+05 -0.8601134E+00  0.8237007E-04 -0.3048837E+01
  0.3050000E+01  0.1092006E+06  0.2134520E+01  0.3223110E-02  0.2769733E+01  0.9139786E+04  0.2233024E+01  0.1258976E-01 -0.2773386E+01  0.5951092E+05 -0.1007913E+01  0.2853967E-03  0.1931522E+01
  0.3100000E+01  0.1048712E+06  0.1985983E+01  0.3737475E-02  0.3215639E-01  0.7937528E+04  0.2054974E+01  0.2676131E-01 -0.3015610E+01  0.5769166E+05 -0.1156480E+01  0.3898289E-03  0.1631994E+01
  0.3150000E+01  0.1007154E+06  0.1834257E+01  0.3000404E-02  0.1560943E+01  0.6894800E+04  0.1863511E+01  0.1580111E-01  0.5991136E+00  0.5578835E+05 -0.1309510E+01  0.4478006E-03  0.1811642E+01
  0.3200000E+01  0.9672909E+05  0.1679965E+01  0.1279110E-01  0.1644526E+01  0.5917494E+04  0.1658483E+01  0.9444172E-02  0.8613378E+00  0.5388753E+05 -0.1463885E+01  0.5734751E-04 -0.3075024E+01
  0.3250000E+01  0.9290798E+05  0.1523204E+01  0.4814103E-02 -0.2239102E+01  0.4768768E+04  0.1419730E+01  0.6706287E-03 -0.1594974E+01  0.5196058E+05 -0.1618752E+01  0.1983643E-03 -0.1176005E+01
  0.3300000E+01  0.8925362E+05  0.1363517E+01  0.1131949E-01 -0.1686252E+00  0.1003527E+05 -0.7060080E+00  0.6663922E-02  0.2808913E+01  0.4999814E+05 -0.1776530E+01  0.2378915E-03 -0.1846893E+01
  0.3350000E+01  0.8574182E+05  0.1201314E+01  0.1100783E-01  0.1378142E+01  0.6403005E+04  0.1172209E+01  0.9570620E-02  0.5640945E+00  0.4814873E+05 -0.1937538E+01  0.2359259E-03 -0.1969319E+01
  0.3400000E+01  0.8235462E+05  0.1036537E+01  0.4045225E-02 -0.2968033E+01  0.5222896E+04  0.1035944E+01  0.4595731E-02 -0.2630645E+01  0.4637081E+05 -0.2100891E+01  0.1604442E-03 -0.2066348E+01
  0.3450000E+01  0.7913202E+05  0.8691466E+00  0.3801831E-02  0.2786639E+01  0.4446273E+04  0.8650058E+00  0.5362398E-02  0.7330523E+00  0.4463740E+05 -0.2266553E+01  0.1051683E-03  0.1038153E+01
  0.3500000E+01  0.7607395E+05  0.6997064E+00  0.2233376E-02  0.1326691E+01  0.3881173E+04  0.6993607E+00  0.6667181E-02  0.2771220E+01  0.4291993E+05 -0.2434223E+01  0.1495514E-03  0.1035435E+01
  0.3550000E+01  0.7320494E+05  0.5300982E+00  0.6975982E-02 -0.1227082E+01  0.3393531E+04  0.5306373E+00  0.1213380E-03  0.2097315E+01  0.4119177E+05 -0.2599914E+01  0.5583673E-04  0.3004527E+01
  0.3600000E+01  0.7048920E+05  0.3629960E+00  0.5948341E-02  0.7648771E+00  0.2955130E+04  0.3691966E+00  0.4878837E-02 -0.1563271E+01  0.3929547E+05 -0.2760511E+01  0.1770960E-03  0.2755086E+01
  0.3650000E+01  0.6804744E+05  0.2115411E+00  0.4128528E-02 -0.1157169E+01  0.2542327E+04  0.2118436E+00  0.6161021E-02  0.2084255E+01  0.3715028E+05 -0.2903674E+01  0.2800363E-03 -0.2230645E+01
  0.3700000E+01  0.6477702E+05  0.2599112E+00  0.1824799E-02  0.2631651E+01  0.2141847E+04  0.4863442E-01  0.6388249E-02  0.5018786E+00  0.3184111E+05 -0.2823874E+01  0.1091030E-03  0.6365082E+00
  0.3750000E+01  0.6093601E+05 -0.3488375E+00  0.2657266E-02 -0.1664966E+01  0.1766557E+04 -0.1313384E+00  0.3385079E-02 -0.1243533E+01  0.3531293E+05  0.2801890E+01  0.1326944E-03 -0.1249046E+01
  0.3800000E+01  0.6002381E+05 -0.4668368E+00  0.5952835E-02 -0.1996578E+00  0.1433711E+04 -0.3362054E+00  0.2522853E-02 -0.2266497E+01  0.3340174E+05  0.2691684E+01  0.1432545E-03  0.3088310E+01
  0.3850000E+01  0.5814273E+05 -0.6385133E+00  0.2924118E-02  0.1430421E+01  0.1144370E+04 -0.5871253E+00  0.6360434E-02 -0.2897378E+01  0.3161987E+05  0.2517478E+01  0.6587950E-04  0.1956679E+01
  0.3900000E+01  0.5617666E+05 -0.8215121E+00  0.2325058E-02  0.1631510E+00  0.9106154E+03 -0.9016117E+00  0.4123672E-02  0.2986001E+01  0.3007438E+05  0.2326858E+01  0.2896942E-03 -0.1344182E+01
  0.3950000E+01  0.5427847E+05 -0.1009516E+01  0.2531824E-02  0.9555495E+00  0.7455515E+03 -0.1273874E+01  0.3601823E-02  0.1757209E+00  0.2878560E+05  0.2133655E+01  0.1634794E-03 -0.9973558E+00
  0.4000000E+01  0.5239694E+05 -0.1201074E+01  0.2624429E-02  0.2105358E+01  0.6178171E+03 -0.1735553E+01  0.1423406E-02  0.1935282E+01  0.2758204E+05  0.1941389E+01  0.5970946E-04 -0.2034444E+01
  0.4050000E+01  0.5051003E+05 -0.1396235E+01  0.5740331E-02 -0.2379927E+01  0.4800581E+03 -0.2398469E+01  0.1327590E-02 -0.3109800E+01  0.2638076E+05  0.1745725E+01  0.3982654E-04  0.2914569E+00
  0.4100000E+01  0.4863914E+05 -0.1594650E+01  0.2705485E-02  0.1282716E+01  0.9748325E+03  0.2530957E+01  0.5481417E-02 -0.3137156E+01  0.2518925E+05  0.1546911E+01  0.1108890E-03 -0.6885657E-01
  0.4150000E+01  0.4681140E+05 -0.1795734E+01  0.4018962E-02 -0.2693970E+01  0.1626304E+04 -0.2214467E+01  0.3229090E-02  0.2241974E+01  0.2403203E+05  0.1346597E+01  0.1332416E-03  0.1339705E+01
  0.4200000E+01  0.4502677E+05 -0.1999021E+01  0.1657618E-02  0.1468208E+01  0.1028773E+04 -0.2498998E+01  0.2486386E-02  0.1392858E+01  0.2287242E+05  0.1147013E+01  0.1911921E-03  0.4993467E+00
  0.4250000E+01  0.4328107E+05 -0.2203698E+01  0.1330483E-02 -0.2091454E+01  0.8879347E+03 -0.2685128E+01  0.1280523E-02  0.4563202E-01  0.2165285E+05  0.9485238E+00  0.1577719E-03 -0.1643396E+01
  0.4300000E+01  0.4160262E+05 -0.2408075E+01  0.2472234E-02  0.1567710E+01  0.7768519E+03 -0.2816002E+01  0.1037344E-02  0.5261306E+00  0.2040663E+05  0.7503942E+00  0.1530436E-03  0.7719006E-01
  0.4350000E+01  0.3998104E+05 -0.2605412E+01  0.1485838E-02 -0.9829719E+00  0.6419873E+03 -0.2908099E+01  0.5066453E-02  0.1660528E+01  0.1909550E+05  0.5580263E+00  0.1537754E-03  0.4081491E+00
  0.4400000E+01  0.3810496E+05 -0.2773028E+01  0.1335397E-02  0.2125913E+01  0.4793265E+03 -0.2987827E+01  0.1466821E-02  0.4624755E+00  0.1741451E+05  0.3925207E+00  0.1373291E-03  0.1570796E+01
  0.4450000E+01  0.3192010E+05 -0.2692869E+01  0.2333543E-02 -0.1263133E+01  0.3108439E+03 -0.3088707E+01  0.4639802E-03 -0.3348318E+00  0.1160963E+05  0.4729431E+00  0.1611343E-03 -0.3034857E+01
  0.4500000E+01  0.3695914E+05  0.2652424E+01  0.1320321E-02 -0.1490534E+01  0.1398064E+03  0.2986253E+01  0.6952224E-03 -0.1458937E+01  0.1923551E+05 -0.4762213E+00  0.1565073E-03 -0.1607366E+01
  0.4550000E+01  0.3620493E+05  0.2598427E+01  0.1534754E-02 -0.1243740E+01  0.4801338E+02  0.1137856E+01  0.2260901E-02  0.1028275E+01  0.1722053E+05 -0.5401415E+00  0.1177160E-03 -0.2436481E+01
  0.4600000E+01  0.3505244E+05  0.2415780E+01  0.1091597E-02 -0.2208006E+01  0.1797323E+03  0.1732194E+00  0.4212802E-03  0.2314864E+01  0.1622485E+05 -0.7247264E+00  0.1812283E-03  0.2100386E+01
  0.4650000E+01  0.3390417E+05  0.2210614E+01  0.9344151E-03  0.1997379E+01  0.3047744E+03 -0.1027829E+00  0.4554876E-03  0.2197760E+00  0.1540293E+05 -0.9303394E+00  0.8285605E-04  0.1829035E+01
  0.4700000E+01  0.3270003E+05  0.1994044E+01  0.1657360E-02  0.1455183E+00  0.4476539E+03 -0.3967685E+00  0.1843225E-02 -0.3086203E+01  0.1460244E+05 -0.1147295E+01  0.4349424E-04 -0.1837048E+01
  0.4750000E+01  0.3149351E+05  0.1771055E+01  0.4880576E-03  0.4881179E+00  0.6885059E+03 -0.6314433E+00  0.1663210E-02 -0.1028186E+01  0.1382766E+05 -0.1371052E+01  0.6291359E-04 -0.1815775E+01
  0.4800000E+01  0.3027733E+05  0.1544451E+01  0.2456357E-02  0.1118782E+01  0.2224409E+04 -0.6482351E+00  0.1567453E-02 -0.2000205E+01  0.1307623E+05 -0.1596917E+01  0.9912710E-04  0.1764418E+01
  0.4850000E+01  0.2904427E+05  0.1314896E+01  0.1775119E-02  0.2892956E+00  0.9778625E+03  0.6587077E+00  0.4123525E-02 -0.4184431E+00  0.1231551E+05 -0.1822874E+01  0.1888660E-03  0.1550597E+01
  0.4900000E+01  0.2778789E+05  0.1083558E+01  0.9503138E-03 -0.2948724E+01  0.6159908E+03  0.3537580E+00  0.3818074E-03  0.1593590E+01  0.1149700E+05 -0.2047390E+01  0.3197299E-04 -0.2838708E+01
  0.4950000E+01  0.2651089E+05  0.8533874E+00  0.1330396E-02  0.3056724E+01  0.4940522E+03  0.1917034E+00  0.6358706E-03  0.1633007E+01  0.1060239E+05 -0.2270559E+01  0.1146269E-03  0.5696955E-01
  0.5000000E+01  0.2515351E+05  0.6351755E+00  0.1698135E-02  0.1339609E+01  0.3744499E+03  0.1070869E+00  0.1045879E-02 -0.1889420E+01  0.9578616E+04 -0.2484452E+01  0.7191396E-04  0.7338006E+00
