VARIABLES="Period (s)" "|Fx| (N/m)" "|Fy| (N/m)" "|Fz| (N/m)" "|Cx| (N)" "|Cy| (N)" "|Cz| (N)" "ang(Fx) (°)" "ang(Fy) (°)" "ang(Fz) (°)" "ang(Cx) (°)" "ang(Cy) (°)" "ang(Cz) (°)"
Zone t="Corps  1"
Zone t="Diffraction force - beta =   0.000 deg",I=    95,F=POINT
 0.3000  0.314108E+05  0.117301E-02  0.743205E+06  0.470758E+00  0.244308E+05  0.185036E-04    0.00    6.69  -89.82  -90.22    0.00  -48.92
 0.3500  0.390380E+05  0.276122E-02  0.726758E+06  0.196456E+00  0.297959E+05  0.363148E-04   -0.01  -79.83  -89.69  -90.29   -0.01 -156.80
 0.4000  0.479076E+05  0.944443E-02  0.707895E+06  0.169476E-01  0.358788E+05  0.652174E-04   -0.02   89.53  -89.50  -76.64   -0.02 -112.35
 0.4500  0.584979E+05  0.102103E-01  0.686872E+06  0.801455E+00  0.426306E+05  0.120102E-03   -0.03   79.85  -89.21  -90.42   -0.03 -237.32
 0.5000  0.705773E+05  0.119241E-01  0.664210E+06  0.963477E+00  0.502159E+05  0.128990E-03   -0.06   70.27  -88.82  -89.39   -0.06 -147.84
 0.5500  0.844935E+05  0.978863E-02  0.640257E+06  0.213644E+00  0.581144E+05  0.631229E-04   -0.10 -218.78  -88.29   87.00   -0.10 -243.05
 0.6000  0.997790E+05  0.165160E-01  0.615216E+06  0.522120E+00  0.663062E+05  0.299308E-04   -0.17 -267.82  -87.64  -88.71   -0.17   30.65
 0.6500  0.116124E+06  0.217356E-01  0.589522E+06  0.943623E+00  0.745604E+05  0.672408E-04   -0.27   71.32  -86.87   89.93   -0.27  -41.26
 0.7000  0.133951E+06  0.432249E-01  0.563219E+06  0.534297E+00  0.821431E+05  0.506885E-04   -0.40   82.26  -85.95  -92.26   -0.40 -191.94
 0.7500  0.152681E+06  0.351979E-02  0.536663E+06  0.741364E-01  0.895946E+05  0.126148E-03   -0.59 -262.07  -84.89   58.62   -0.59   43.47
 0.8000  0.171885E+06  0.414425E-01  0.509988E+06  0.147009E+00  0.961910E+05  0.112860E-03   -0.84  -25.21  -83.68 -257.61   -0.83    4.36
 0.8500  0.192327E+06  0.908346E-02  0.483674E+06  0.134077E+00  0.101723E+06  0.153278E-03   -1.15   14.98  -82.31  -97.41   -1.15 -163.37
 0.9000  0.213343E+06  0.110028E-01  0.457368E+06  0.151416E+00  0.105805E+06  0.315866E-04   -1.54 -108.41  -80.79  -81.58   -1.55  -61.11
 0.9500  0.234400E+06  0.486202E-01  0.431862E+06  0.396514E+00  0.109319E+06  0.180111E-03   -2.02 -114.64  -79.11 -266.86   -2.02 -185.47
 1.0000  0.255009E+06  0.941700E-02  0.406901E+06  0.217535E+00  0.111303E+06  0.182199E-03   -2.60 -249.31  -77.27 -103.94   -2.58   10.25
 1.0500  0.275631E+06  0.229237E-01  0.382347E+06  0.424764E+00  0.110429E+06  0.639460E-04   -3.25   -4.48  -75.27  -85.10   -3.25 -197.35
 1.1000  0.295419E+06  0.419315E-01  0.359047E+06  0.133769E+00  0.109046E+06  0.161540E-03   -3.98 -118.79  -73.12   81.69   -3.98 -157.07
 1.1500  0.313672E+06  0.310645E-01  0.336440E+06  0.331051E+00  0.105431E+06  0.349503E-03   -4.77 -139.38  -70.80   75.40   -4.74 -163.84
 1.2000  0.330254E+06  0.207927E-01  0.314426E+06  0.178219E+00  0.990370E+05  0.761278E-03   -5.58 -196.69  -68.32  -85.86   -5.57 -184.31
 1.2500  0.344374E+06  0.539330E-01  0.293625E+06  0.455374E+00  0.918732E+05  0.317253E-03   -6.37    0.75  -65.68   84.67   -6.37 -183.62
 1.3000  0.355789E+06  0.457284E-01  0.273851E+06  0.203715E+00  0.831080E+05  0.158252E-03   -7.10  -73.66  -62.89 -125.77   -7.09   74.62
 1.3500  0.364157E+06  0.859442E-02  0.254753E+06  0.105939E+00  0.724006E+05  0.628962E-03   -7.71   57.89  -59.93  -89.69   -7.74    5.92
 1.4000  0.369283E+06  0.232227E-01  0.236334E+06  0.833294E+00  0.597009E+05  0.215699E-03   -8.16 -189.98  -56.79   85.19   -8.05   68.20
 1.4500  0.371124E+06  0.294567E-01  0.219482E+06  0.348717E+00  0.483670E+05  0.369258E-03   -8.35 -156.58  -53.53  -65.68   -8.40 -160.07
 1.5000  0.370070E+06  0.720487E-01  0.203392E+06  0.569890E-01  0.362394E+05  0.228126E-03   -8.26    9.70  -50.10 -239.22   -8.40   84.24
 1.5500  0.366251E+06  0.132939E+00  0.188035E+06  0.147376E-01  0.236254E+05  0.171364E-03   -7.85    2.61  -46.48   14.22   -8.05 -163.18
 1.6000  0.360222E+06  0.686591E-01  0.173401E+06  0.521363E+00  0.103685E+05  0.550494E-04   -7.10    7.09  -42.67   86.00   -6.42   14.04
 1.6500  0.352146E+06  0.714915E-02  0.159862E+06  0.309919E+00  0.836613E+03  0.626459E-03   -5.96 -160.35  -38.74  -86.67 -185.83   -7.00
 1.7000  0.342742E+06  0.506259E-01  0.147255E+06  0.328271E+00  0.109606E+05  0.623925E-03   -4.43    4.86  -34.65   79.28 -183.07 -184.73
 1.7500  0.332288E+06  0.202845E-01  0.135395E+06  0.174949E+00  0.207576E+05  0.456807E-03   -2.51  -15.70  -30.36 -258.73 -181.66    6.41
 1.8000  0.321027E+06  0.432179E-01  0.124221E+06  0.263882E-01  0.299531E+05  0.237524E-03   -0.23   13.74  -25.87  -69.40 -179.79 -209.86
 1.8500  0.309359E+06  0.727303E-01  0.113808E+06  0.162416E+00  0.389087E+05  0.272506E-03    2.42    4.76  -21.19  -97.12 -177.98 -168.49
 1.9000  0.297449E+06  0.309155E-01  0.104185E+06  0.593566E-01  0.456473E+05  0.100812E-02    5.46 -129.46  -16.40 -262.85 -174.54 -182.60
 1.9500  0.285663E+06  0.286772E-01  0.952659E+05  0.532503E+00  0.512899E+05  0.728797E-03    8.84 -156.23  -11.38  -92.42 -170.69 -173.99
 2.0000  0.274011E+06  0.618180E-01  0.870230E+05  0.389532E+00  0.563177E+05  0.255898E-03   12.56   -9.28   -6.14  -91.78 -166.74 -206.57
 2.0500  0.262543E+06  0.197449E-01  0.793889E+05  0.362091E-01  0.608439E+05  0.445993E-03   16.58 -204.99   -0.69  -33.37 -162.80  -14.87
 2.1000  0.251344E+06  0.245156E-01  0.723871E+05  0.693887E-01  0.648414E+05  0.866197E-03   20.89  -50.21    4.87  -97.70 -158.90 -174.44
 2.1500  0.240428E+06  0.503672E-01  0.659420E+05  0.268004E-01  0.682165E+05  0.825244E-04   25.50   -6.51   10.33   80.59 -154.89 -146.31
 2.2000  0.230047E+06  0.319618E-01  0.600623E+05  0.404031E-01  0.703956E+05  0.160399E-03   30.40    2.44   16.35 -229.90 -149.51 -244.65
 2.2500  0.220112E+06  0.196433E-01  0.549142E+05  0.400776E-01  0.721491E+05  0.194888E-03   35.55   61.61   23.02  -85.66 -144.10   44.80
 2.3000  0.210590E+06  0.466993E-01  0.507683E+05  0.157827E+00  0.734848E+05  0.132379E-03   40.96 -182.51   30.54 -265.10 -138.56  -53.79
 2.3500  0.201453E+06  0.353581E-01  0.502310E+05  0.679088E-01  0.743864E+05  0.132818E-03   46.60   21.98   42.04   89.17 -133.05   77.56
 2.4000  0.192674E+06  0.435869E-01  0.342414E+05  0.108805E+00  0.748346E+05  0.400235E-03   52.47   -8.13   32.46  -96.33 -127.43 -252.39
 2.4500  0.184296E+06  0.292081E-01  0.348227E+05  0.708075E-01  0.746992E+05  0.769837E-04   58.58 -201.16   46.98 -238.98 -121.59   63.12
 2.5000  0.176313E+06  0.139083E-01  0.324147E+05  0.426840E-01  0.742233E+05  0.221364E-03   64.91 -215.48   55.51 -106.69 -115.33 -127.56
 2.5500  0.168845E+06  0.262834E-01  0.291665E+05  0.419361E-01  0.739291E+05  0.267138E-03   71.43 -217.58   61.72  -82.30 -108.72  -88.36
 2.6000  0.161771E+06  0.322839E-02  0.261555E+05  0.833055E-01  0.731968E+05  0.107693E-03   78.16   31.96   68.51  -75.36 -102.21   67.07
 2.6500  0.155136E+06  0.171047E-01  0.234593E+05  0.244542E-01  0.720896E+05  0.694317E-03   85.06 -197.81   75.66   78.70  -95.70 -269.37
 2.7000  0.149084E+06  0.174523E-01  0.210267E+05  0.225824E-01  0.703350E+05  0.345646E-03 -267.89 -184.24   83.11  -61.78  -89.38   47.68
 2.7500  0.144474E+06  0.209127E-01  0.188502E+05  0.195035E-01  0.684119E+05  0.260100E-03 -260.86  -89.58 -269.18 -241.27  -83.80 -175.79
 2.8000  0.256128E+06  0.112424E-01  0.169208E+05  0.282703E-01  0.916486E+05  0.325347E-03   85.09   58.73 -261.08 -175.50 -189.70  -94.71
 2.8500  0.126706E+06  0.541871E-02  0.152583E+05  0.727043E-02  0.683430E+05  0.248512E-03 -244.43 -147.20 -252.70 -259.18  -64.98 -107.88
 2.9000  0.122744E+06  0.149864E-01  0.136461E+05  0.316269E-01  0.648594E+05  0.358439E-03 -236.78 -143.21 -244.39 -107.00  -57.74 -196.70
 2.9500  0.118168E+06  0.295607E-02  0.119904E+05  0.114820E-01  0.627715E+05  0.404160E-04 -228.82 -134.64 -236.05   71.21  -49.14 -160.71
 3.0000  0.113619E+06  0.565450E-02  0.104897E+05  0.636762E-02  0.611859E+05  0.823701E-04 -220.65 -260.60 -227.21  -64.50  -40.72   84.69
 3.0500  0.109201E+06  0.322311E-02  0.913979E+04  0.125898E-01  0.595109E+05  0.285397E-03 -212.30 -248.69 -217.94   68.90  -32.25 -200.67
 3.1000  0.104871E+06  0.373747E-02  0.793753E+04  0.267613E-01  0.576917E+05  0.389829E-03 -203.79  -91.84 -207.74   82.78  -23.74 -183.51
 3.1500  0.100715E+06  0.300040E-02  0.689480E+04  0.158011E-01  0.557884E+05  0.447801E-03 -195.10 -179.44 -196.77 -124.33  -14.97 -193.80
 3.2000  0.967291E+05  0.127911E-01  0.591749E+04  0.944417E-02  0.538875E+05  0.573475E-04 -186.25 -184.22 -185.02 -139.35   -6.13   86.19
 3.2500  0.929080E+05  0.481410E-02  0.476877E+04  0.670629E-03  0.519606E+05  0.198364E-03 -177.27   38.29 -171.34    1.39    2.75  -22.62
 3.3000  0.892536E+05  0.113195E-01  0.100353E+05  0.666392E-02  0.499981E+05  0.237892E-03 -168.12  -80.34  -49.55 -250.94   11.79   15.82
 3.3500  0.857418E+05  0.110078E-01  0.640300E+04  0.957062E-02  0.481487E+05  0.235926E-03 -158.83 -168.96 -157.16 -122.32   21.01   22.83
 3.4000  0.823546E+05  0.404523E-02  0.522290E+04  0.459573E-02  0.463708E+05  0.160444E-03 -149.39   80.06 -149.36   60.72   30.37   28.39
 3.4500  0.791320E+05  0.380183E-02  0.444627E+04  0.536240E-02  0.446374E+05  0.105168E-03 -139.80 -249.66 -139.56 -132.00   39.86 -149.48
 3.5000  0.760739E+05  0.223338E-02  0.388117E+04  0.666718E-02  0.429199E+05  0.149551E-03 -130.09 -166.01 -130.07 -248.78   49.47 -149.33
 3.5500  0.732049E+05  0.697598E-02  0.339353E+04  0.121338E-03  0.411918E+05  0.558367E-04 -120.37  -19.69 -120.40 -210.17   58.96 -262.15
 3.6000  0.704892E+05  0.594834E-02  0.295513E+04  0.487884E-02  0.392955E+05  0.177096E-03 -110.80 -133.82 -111.15   -0.43   68.17 -247.85
 3.6500  0.680474E+05  0.412853E-02  0.254233E+04  0.616102E-02  0.371503E+05  0.280036E-03 -102.12  -23.70 -102.14 -209.42   76.37   37.81
 3.7000  0.647770E+05  0.182480E-02  0.214185E+04  0.638825E-02  0.318411E+05  0.109103E-03 -104.89 -240.78  -92.79 -118.76   71.80 -126.47
 3.7500  0.609360E+05  0.265727E-02  0.176656E+04  0.338508E-02  0.353129E+05  0.132694E-03  -70.01    5.40  -82.47  -18.75 -250.54  -18.43
 3.8000  0.600238E+05  0.595284E-02  0.143371E+04  0.252285E-02  0.334017E+05  0.143254E-03  -63.25  -78.56  -70.74   39.86 -244.22 -266.95
 3.8500  0.581427E+05  0.292412E-02  0.114437E+04  0.636043E-02  0.316199E+05  0.658795E-04  -53.42 -171.96  -56.36   76.01 -234.24 -202.11
 3.9000  0.561767E+05  0.232506E-02  0.910615E+03  0.412367E-02  0.300744E+05  0.289694E-03  -42.93  -99.35  -38.34 -261.09 -223.32  -12.98
 3.9500  0.542785E+05  0.253182E-02  0.745552E+03  0.360182E-02  0.287856E+05  0.163479E-03  -32.16 -144.75  -17.01 -100.07 -212.25  -32.86
 4.0000  0.523969E+05  0.262443E-02  0.617817E+03  0.142341E-02  0.275820E+05  0.597095E-04  -21.18 -210.63    9.44 -200.88 -201.23   26.57
 4.0500  0.505100E+05  0.574033E-02  0.480058E+03  0.132759E-02  0.263808E+05  0.398265E-04  -10.00   46.36   47.42   88.18 -190.02 -106.70
 4.1000  0.486391E+05  0.270548E-02  0.974833E+03  0.548142E-02  0.251892E+05  0.110889E-03    1.37 -163.49 -235.01   89.75 -178.63  -86.05
 4.1500  0.468114E+05  0.401896E-02  0.162630E+04  0.322909E-02  0.240320E+05  0.133242E-03   12.89   64.35   36.88 -218.46 -167.15 -166.76
 4.2000  0.450268E+05  0.165762E-02  0.102877E+04  0.248639E-02  0.228724E+05  0.191192E-03   24.54 -174.12   53.18 -169.80 -155.72 -118.61
 4.2500  0.432811E+05  0.133048E-02  0.887935E+03  0.128052E-02  0.216528E+05  0.157772E-03   36.26   29.83   63.85  -92.61 -144.35    4.16
 4.3000  0.416026E+05  0.247223E-02  0.776852E+03  0.103734E-02  0.204066E+05  0.153044E-03   47.97 -179.82   71.35 -120.15 -132.99  -94.42
 4.3500  0.399810E+05  0.148584E-02  0.641987E+03  0.506645E-02  0.190955E+05  0.153775E-03   59.28  -33.68   76.62 -185.14 -121.97 -113.39
 4.4000  0.381050E+05  0.133540E-02  0.479327E+03  0.146682E-02  0.174145E+05  0.137329E-03   68.88 -211.81   81.19 -116.50 -112.49 -180.00
 4.4500  0.319201E+05  0.233354E-02  0.310844E+03  0.463980E-03  0.116096E+05  0.161134E-03   64.29  -17.63   86.97  -70.82 -117.10   83.88
 4.5000  0.369591E+05  0.132032E-02  0.139806E+03  0.695222E-03  0.192355E+05  0.156507E-03 -241.97   -4.60 -261.10   -6.41  -62.71    2.10
 4.5500  0.362049E+05  0.153475E-02  0.480134E+02  0.226090E-02  0.172205E+05  0.117716E-03 -238.88  -18.74 -155.19 -148.92  -59.05   49.60
 4.6000  0.350524E+05  0.109160E-02  0.179732E+03  0.421280E-03  0.162249E+05  0.181228E-03 -228.41   36.51  -99.92 -222.63  -48.48 -210.34
 4.6500  0.339042E+05  0.934415E-03  0.304774E+03  0.455488E-03  0.154029E+05  0.828561E-04 -216.66 -204.44  -84.11 -102.59  -36.70 -194.80
 4.7000  0.327000E+05  0.165736E-02  0.447654E+03  0.184322E-02  0.146024E+05  0.434942E-04 -204.25  -98.34  -67.27   86.83  -24.26   15.26
 4.7500  0.314935E+05  0.488058E-03  0.688506E+03  0.166321E-02  0.138277E+05  0.629136E-04 -191.47 -117.97  -53.82  -31.09  -11.44   14.04
 4.8000  0.302773E+05  0.245636E-02  0.222441E+04  0.156745E-02  0.130762E+05  0.991271E-04 -178.49 -154.10  -52.86   24.60    1.50 -191.09
 4.8500  0.290443E+05  0.177512E-02  0.977862E+03  0.412352E-02  0.123155E+05  0.188866E-03 -165.34 -106.58 -127.74  -66.02   14.44 -178.84
 4.9000  0.277879E+05  0.950314E-03  0.615991E+03  0.381807E-03  0.114970E+05  0.319730E-04 -152.08   78.95 -110.27 -181.31   27.31   72.65
 4.9500  0.265109E+05  0.133040E-02  0.494052E+03  0.635871E-03  0.106024E+05  0.114627E-03 -138.90 -265.14 -100.98 -183.56   40.09  -93.26
 5.0000  0.251535E+05  0.169813E-02  0.374450E+03  0.104588E-02  0.957862E+04  0.719140E-04 -126.39 -166.75  -96.14   18.26   52.35 -132.04
