VARIABLES="w (rad/s)"
"abs(F   1   1)" "angle(F   1   1)"
"abs(F   1   2)" "angle(F   1   2)"
"abs(F   1   3)" "angle(F   1   3)"
"abs(F   1   4)" "angle(F   1   4)"
"abs(F   1   5)" "angle(F   1   5)"
"abs(F   1   6)" "angle(F   1   6)"
Zone t="FKforce - beta =   0.000",I=    95,F=POINT
  0.3000000E+00  0.2203470E+05 -0.1570795E+01  0.2102159E-02  0.1576548E-01  0.7705952E+06 -0.2861288E-08  0.4748230E+00  0.4016968E-04  0.2686597E+05 -0.1570796E+01  0.1572840E-04 -0.2449787E+00
  0.3500000E+00  0.2731253E+05 -0.1570796E+01  0.3721777E-02 -0.3626614E-01  0.7640674E+06 -0.3994095E-09  0.1577152E+00 -0.1971263E-02  0.3307252E+05 -0.1570793E+01  0.5416878E-04  0.1285242E+01
  0.4000000E+00  0.3350250E+05 -0.1570796E+01  0.6625798E-02  0.3094653E+01  0.7565410E+06 -0.2420298E-08  0.3784466E-01  0.1229777E-01  0.4024676E+05 -0.1570794E+01  0.7098310E-04  0.5358112E+00
  0.4500000E+00  0.4076148E+05 -0.1570796E+01  0.3209043E-02 -0.3087479E+01  0.7480177E+06  0.2794659E-08  0.8073134E+00 -0.1890071E-02  0.4852903E+05 -0.1570797E+01  0.1080686E-03  0.2733225E+01
  0.5000000E+00  0.4914295E+05 -0.1570796E+01  0.5033175E-02 -0.3095249E+01  0.7385032E+06  0.2190148E-08  0.8946844E+00 -0.1070198E-02  0.5792607E+05 -0.1570796E+01  0.1190681E-03  0.9561334E+00
  0.5500000E+00  0.5857889E+05 -0.1570796E+01  0.1033718E-01  0.3044246E+01  0.7280036E+06 -0.4862667E-08  0.2159472E+00 -0.3134933E+01  0.6829548E+05 -0.1570796E+01  0.6911343E-04  0.2453921E+01
  0.6000000E+00  0.6893335E+05 -0.1570796E+01  0.1957758E-02  0.3672088E+00  0.7165271E+06 -0.4259096E-10  0.5270082E+00  0.7310787E-03  0.7941543E+05 -0.1570795E+01  0.2750817E-04 -0.2158799E+01
  0.6500000E+00  0.8006853E+05 -0.1570796E+01  0.1184136E-01 -0.3132009E+01  0.7040868E+06 -0.3337449E-08  0.9669195E+00  0.3140543E+01  0.9106562E+05 -0.1570795E+01  0.4613261E-04 -0.1243550E+00
  0.7000000E+00  0.9187153E+05 -0.1570796E+01  0.3000056E-01 -0.3130689E+01  0.6906969E+06  0.1678982E-08  0.4953321E+00 -0.2310390E-02  0.1030605E+06 -0.1570795E+01  0.4640780E-04  0.1735945E+01
  0.7500000E+00  0.1042497E+06 -0.1570796E+01  0.7849183E-02  0.3074596E+01  0.6763741E+06  0.1673929E-07  0.3786716E-01  0.2992145E+01  0.1152431E+06 -0.1570798E+01  0.1603194E-03 -0.2178598E+01
  0.8000000E+00  0.1171188E+06 -0.1570796E+01  0.2182196E-01 -0.5119800E-01  0.6611418E+06  0.1232443E-07  0.2310113E-01  0.1025605E+00  0.1274731E+06 -0.1570798E+01  0.1221299E-03 -0.1823351E+01
  0.8500000E+00  0.1303936E+06 -0.1570796E+01  0.1018843E-01 -0.3707555E-01  0.6450224E+06 -0.2838746E-08  0.4921461E-01  0.4543736E-01  0.1396160E+06 -0.1570796E+01  0.1850423E-03  0.1320818E+01
  0.9000000E+00  0.1439844E+06 -0.1570796E+01  0.6273224E-02  0.3601229E+00  0.6280489E+06  0.2526737E-08  0.6233906E-01  0.3089923E+01  0.1515427E+06 -0.1570798E+01  0.7406803E-04 -0.1363300E+01
  0.9500000E+00  0.1577944E+06 -0.1570796E+01  0.1827469E-01 -0.5445640E-01  0.6102545E+06 -0.5300843E-08  0.6208752E-02 -0.3075188E+01  0.1631264E+06 -0.1570796E+01  0.8392334E-04  0.1570796E+01
  0.9999999E+00  0.1717213E+06 -0.1570796E+01  0.1208948E-01 -0.3046947E+01  0.5916778E+06  0.1237873E-08  0.1524701E+00 -0.7505864E-02  0.1742453E+06 -0.1570796E+01  0.5132150E-04 -0.2408777E+01
  0.1050000E+01  0.1856552E+06 -0.1570796E+01  0.8714815E-02  0.2879468E+01  0.5723667E+06  0.7784461E-08  0.3262267E+00 -0.1833627E-01  0.1847838E+06 -0.1570796E+01  0.3757041E-04 -0.1989021E+01
  0.1100000E+01  0.1994795E+06 -0.1570796E+01  0.1474568E-01 -0.2263813E-01  0.5523696E+06  0.1988945E-08  0.2091953E+00  0.3130651E+01  0.1946339E+06 -0.1570796E+01  0.3719868E-03  0.1343229E+01
  0.1150000E+01  0.2130722E+06 -0.1570796E+01  0.3445136E-02  0.4984781E-01  0.5317415E+06 -0.9412248E-08  0.2248204E+00  0.3106972E+01  0.2036965E+06 -0.1570796E+01  0.3239799E-03  0.1357236E+01
  0.1200000E+01  0.2263061E+06 -0.1570796E+01  0.1175002E-01  0.2881377E+01  0.5105455E+06 -0.1111805E-07  0.2076709E+00 -0.2072166E-01  0.2118838E+06 -0.1570796E+01  0.7943735E-03  0.1618836E+01
  0.1250000E+01  0.2390493E+06 -0.1570796E+01  0.3129803E-02  0.1813797E+00  0.4888483E+06 -0.3096404E-07  0.5553440E+00  0.3128706E+01  0.2191204E+06 -0.1570796E+01  0.2101202E-03  0.1625288E+01
  0.1300000E+01  0.2511653E+06 -0.1570796E+01  0.2772183E-02 -0.6845193E+00  0.4667204E+06  0.3792462E-08  0.2040183E+00  0.1518322E-01  0.2253423E+06 -0.1570796E+01  0.7033954E-04 -0.2432966E+01
  0.1350000E+01  0.2625180E+06 -0.1570796E+01  0.1597637E-01  0.8354773E-01  0.4442399E+06  0.0000000E+00  0.1625342E+00 -0.1858941E-01  0.2305029E+06 -0.1570796E+01  0.5059761E-03 -0.1668965E+01
  0.1400000E+01  0.2729668E+06 -0.1570796E+01  0.1851391E-01 -0.2982474E+01  0.4214879E+06  0.5357926E-08  0.7499977E+00  0.3123159E+01  0.2345691E+06 -0.1570796E+01  0.1076934E-03 -0.1971037E+01
  0.1450000E+01  0.2823750E+06 -0.1570796E+01  0.2012540E-01  0.2179956E-01  0.3985500E+06 -0.3277261E-07  0.1962994E+00 -0.1026083E-01  0.2375247E+06 -0.1570796E+01  0.2212524E-03  0.1570796E+01
  0.1500000E+01  0.2906052E+06 -0.1570796E+01  0.1522830E-02  0.2295046E+01  0.3755160E+06 -0.2974423E-07  0.4339459E-01 -0.3100441E+01  0.2393676E+06 -0.1570796E+01  0.9770392E-04  0.2245537E+01
  0.1550000E+01  0.2975256E+06 -0.1570796E+01  0.2657495E-02 -0.3517143E+00  0.3524773E+06  0.0000000E+00  0.2197688E-01  0.1857531E+00  0.2401147E+06 -0.1570796E+01  0.2144728E-03  0.1481747E+01
  0.1600000E+01  0.3030108E+06 -0.1570796E+01  0.9250175E-02 -0.1510973E+00  0.3295288E+06  0.5667716E-07  0.3809297E+00  0.3138628E+01  0.2397970E+06 -0.1570796E+01  0.1494198E-03 -0.1325818E+01
  0.1650000E+01  0.3069423E+06 -0.1570796E+01  0.3332007E-02  0.4260708E+00  0.3067662E+06  0.1392742E-08  0.1058435E+00  0.2119365E-01  0.2384618E+06 -0.1570796E+01  0.5499651E-03 -0.1522223E+01
  0.1700000E+01  0.3092134E+06 -0.1570796E+01  0.1869585E-02 -0.3063980E+01  0.2842846E+06  0.2018155E-07  0.3660736E+00  0.3130880E+01  0.2361702E+06 -0.1570796E+01  0.5441295E-03  0.1476011E+01
  0.1750000E+01  0.3097288E+06 -0.1570796E+01  0.2512181E-02  0.2895012E+00  0.2621798E+06 -0.2560787E-07  0.2359422E+00  0.3103945E+01  0.2329965E+06 -0.1570796E+01  0.4582226E-03 -0.1615558E+01
  0.1800000E+01  0.3084095E+06 -0.1570796E+01  0.3999700E-02 -0.2773794E+01  0.2405464E+06  0.8652381E-07  0.1334573E+00  0.1040464E-01  0.2290272E+06 -0.1570796E+01  0.2014218E-03  0.2000559E+01
  0.1850000E+01  0.3051928E+06 -0.1570796E+01  0.1037219E-01  0.2534565E+01  0.2194749E+06 -0.2224770E-08  0.1696616E+00  0.4856596E-02  0.2243568E+06 -0.1570796E+01  0.7658545E-04  0.1658074E+01
  0.1900000E+01  0.3000367E+06 -0.1570796E+01  0.1175830E-01  0.1478272E+00  0.1990525E+06 -0.6132569E-09  0.1407045E+00 -0.4588862E-01  0.2190887E+06 -0.1570796E+01  0.9333154E-03  0.1644433E+01
  0.1950000E+01  0.2929202E+06 -0.1570796E+01  0.7080590E-02 -0.6874529E-01  0.1793623E+06  0.3096637E-07  0.3285587E+00 -0.3993988E-02  0.2133297E+06 -0.1570796E+01  0.7019147E-03  0.1576231E+01
  0.2000000E+01  0.2838470E+06 -0.1570796E+01  0.7322569E-02  0.4310251E+00  0.1604800E+06 -0.9888545E-07  0.3700633E+00 -0.1628772E-01  0.2071899E+06 -0.1570796E+01  0.2139294E-03  0.1624317E+01
  0.2050000E+01  0.2728452E+06 -0.1570796E+01  0.4609039E-02 -0.2633328E+01  0.1424761E+06  0.3427110E-08  0.3564105E-01  0.4411107E-01  0.2007785E+06 -0.1570796E+01  0.2935087E-03 -0.1414194E+01
  0.2100000E+01  0.2599718E+06 -0.1570796E+01  0.5566534E-02 -0.1263783E+01  0.1254121E+06  0.1829904E-06  0.1075900E-01  0.1701963E-01  0.1942016E+06 -0.1570796E+01  0.8241159E-03  0.1552280E+01
  0.2150000E+01  0.2453090E+06 -0.1570796E+01  0.4109672E-02 -0.2460042E-01  0.1093413E+06  0.3795811E-07  0.7071412E-01  0.3093671E+01  0.1875587E+06 -0.1570796E+01  0.1694001E-03 -0.1435269E+01
  0.2200000E+01  0.2289714E+06 -0.1570796E+01  0.5927346E-02  0.2900828E+01  0.9430733E+05 -0.1423827E-07  0.5883304E-01 -0.9726059E-02  0.1809405E+06 -0.1570796E+01  0.6961169E-04  0.2976444E+01
  0.2250000E+01  0.2110987E+06 -0.1570796E+01  0.3125725E-02 -0.2628804E+01  0.8034371E+05  0.1105328E-06  0.8238975E-01 -0.5090638E-01  0.1744280E+06 -0.1570796E+01  0.1705985E-04  0.2677945E+01
  0.2300000E+01  0.1918628E+06 -0.1570796E+01  0.4615162E-02 -0.3720367E-01  0.6747412E+05 -0.9995513E-07  0.8218399E-01  0.3139643E+01  0.1680870E+06 -0.1570796E+01  0.6151015E-04  0.1051650E+01
  0.2350000E+01  0.1714606E+06 -0.1570796E+01  0.3568564E-02  0.2709502E+01  0.5571068E+05 -0.1279082E-06  0.6490456E-01  0.3041982E+01  0.1619690E+06 -0.1570796E+01  0.1175150E-03 -0.9467733E+00
  0.2400000E+01  0.1501164E+06 -0.1570796E+01  0.1100560E-01 -0.1292131E+00  0.4505518E+05  0.2827886E-06  0.5649057E-01  0.3420962E-01  0.1561088E+06 -0.1570796E+01  0.8094442E-04  0.9697226E+00
  0.2450000E+01  0.1280777E+06 -0.1570796E+01  0.2727975E-03  0.2784459E+01  0.3549841E+05  0.9005239E-07  0.6991838E-02  0.8713428E+00  0.1505242E+06 -0.1570796E+01  0.4023839E-04 -0.7099116E+00
  0.2500000E+01  0.1056125E+06 -0.1570796E+01  0.3576157E-02  0.3160634E-01  0.2702076E+05 -0.3011295E-06  0.8387145E-02  0.4081914E+00  0.1452145E+06 -0.1570796E+01  0.8379455E-04  0.1661971E+01
  0.2550000E+01  0.8300641E+05 -0.1570796E+01  0.1022822E-01 -0.2831032E+01  0.1959244E+05  0.1870118E-06  0.2581661E-01  0.2926695E+01  0.1401621E+06 -0.1570796E+01  0.2054277E-04  0.1190290E+01
  0.2600000E+01  0.6055739E+05 -0.1570796E+01  0.2117694E-02  0.2236816E+01  0.1317431E+05  0.2967947E-06  0.3656694E-01  0.9342485E-01  0.1353334E+06 -0.1570796E+01  0.8190503E-04 -0.2055274E+01
  0.2650000E+01  0.3857122E+05 -0.1570796E+01  0.1711886E-02 -0.2859314E+01  0.7718559E+04 -0.1769322E-06  0.2273034E-01 -0.3003623E+01  0.1306791E+06 -0.1570796E+01  0.1241975E-03 -0.1385448E+01
  0.2700000E+01  0.1735613E+05 -0.1570796E+01  0.1680416E-03  0.1112225E+01  0.3169721E+04  0.2616367E-05  0.2953926E-02  0.1060936E+00  0.1261377E+06 -0.1570796E+01  0.1674995E-03 -0.2095592E+01
  0.2750000E+01  0.2783852E+04  0.1570798E+01  0.6860969E-02  0.4881422E+00  0.5343179E+03  0.3141582E+01  0.7855584E-02 -0.3106136E+01  0.1216378E+06 -0.1570796E+01  0.2065580E-03  0.1644735E+01
  0.2800000E+01  0.2155472E+05  0.1570797E+01  0.4531695E-02 -0.2972431E+01  0.3461028E+04  0.3141592E+01  0.7894050E-02  0.1094298E+00  0.1171010E+06 -0.1570796E+01  0.7638925E-04 -0.1520838E+01
  0.2850000E+01  0.3867965E+05  0.1570796E+01  0.6426283E-02  0.1693938E+00  0.5682020E+04  0.3141593E+01  0.2134311E-01 -0.3089916E+01  0.1124465E+06 -0.1570796E+01  0.2157919E-04 -0.7853982E+00
  0.2900000E+01  0.5390508E+05  0.1570796E+01  0.2511671E-02  0.2533791E+01  0.7271689E+04 -0.3141592E+01  0.2294809E-01 -0.6104489E-01  0.1075934E+06 -0.1570796E+01  0.6877043E-04  0.1515298E+01
  0.2950000E+01  0.6700845E+05  0.1570796E+01  0.2719923E-02  0.2998754E+01  0.8305846E+04  0.3141593E+01  0.2706016E-03  0.1195526E+01  0.1024666E+06 -0.1570796E+01  0.1167073E-03  0.1373401E+01
  0.3000000E+01  0.7780377E+05  0.1570796E+01  0.2396909E-02  0.2973697E+01  0.8860444E+04 -0.3141592E+01  0.4192019E-02  0.2955797E+01  0.9699942E+05 -0.1570796E+01  0.7764104E-04  0.2056418E+01
  0.3050000E+01  0.8614816E+05  0.1570796E+01  0.2181761E-02  0.3075103E+01  0.9010212E+04  0.3141593E+01  0.7263341E-02  0.2848557E+01  0.9113785E+05 -0.1570796E+01  0.2289392E-03  0.1548404E+01
  0.3100000E+01  0.9194670E+05  0.1570796E+01  0.4490338E-03  0.1400061E+01  0.8827479E+04  0.3141593E+01  0.2352836E-01  0.3090337E+01  0.8484522E+05 -0.1570796E+01  0.2899562E-03  0.1554350E+01
  0.3150000E+01  0.9515745E+05  0.1570796E+01  0.1956695E-02 -0.1585783E+00  0.8381041E+04  0.3141593E+01  0.6973605E-02  0.1327684E+00  0.7810262E+05 -0.1570796E+01  0.4381425E-03  0.1692991E+01
  0.3200000E+01  0.9579402E+05  0.1570796E+01  0.1336084E-02  0.2636435E+01  0.7735204E+04  0.3141593E+01  0.7757055E-02  0.2139369E-01  0.7091461E+05 -0.1570796E+01  0.9218632E-04 -0.1144169E+01
  0.3250000E+01  0.9392831E+05  0.1570796E+01  0.1198768E-02 -0.9094741E+00  0.6948910E+04 -0.3141593E+01  0.7202862E-03  0.1568772E+00  0.6330839E+05 -0.1570796E+01  0.1145045E-03 -0.1537475E+01
  0.3300000E+01  0.8969076E+05  0.1570796E+01  0.6992898E-03  0.1746258E+01  0.6075136E+04 -0.3141593E+01  0.1401909E-02 -0.2956872E+01  0.5533494E+05 -0.1570796E+01  0.2334769E-03 -0.1489012E+01
  0.3350000E+01  0.8326888E+05  0.1570796E+01  0.1811091E-02 -0.2900190E+01  0.5160378E+04 -0.3141592E+01  0.2398850E-02  0.5380332E+00  0.4706946E+05 -0.1570796E+01  0.2528082E-03 -0.1661456E+01
  0.3400000E+01  0.7490489E+05  0.1570796E+01  0.1805171E-02 -0.1515825E+01  0.4244349E+04  0.3141592E+01  0.3817676E-03 -0.8065964E+00  0.3860944E+05 -0.1570796E+01  0.9226522E-04 -0.2089942E+01
  0.3450000E+01  0.6489084E+05  0.1570796E+01  0.1182674E-02 -0.2228409E+01  0.3359924E+04  0.3141593E+01  0.4269897E-02  0.3064461E+01  0.3007245E+05 -0.1570796E+01  0.1184401E-03  0.1310194E+01
  0.3500000E+01  0.5356221E+05  0.1570796E+01  0.1362415E-02  0.3112714E+01  0.2533146E+04  0.3141593E+01  0.1278910E-02 -0.2589791E+01  0.2159232E+05 -0.1570796E+01  0.3034198E-04  0.2097739E+01
  0.3550000E+01  0.4128943E+05  0.1570797E+01  0.1557203E-02 -0.3237841E+00  0.1783522E+04  0.3141592E+01  0.6064591E-03  0.8282211E+00  0.1331519E+05 -0.1570796E+01  0.7782824E-04  0.1272297E+01
  0.3600000E+01  0.2846896E+05  0.1570796E+01  0.1732914E-02  0.3467772E-01  0.1124404E+04 -0.3141593E+01  0.2501621E-02  0.5618841E-01  0.5394689E+04 -0.1570796E+01  0.1097844E-03  0.1710236E+01
  0.3650000E+01  0.1551084E+05  0.1570795E+01  0.6463077E-03 -0.9098825E+00  0.5634665E+03 -0.3141592E+01  0.3177725E-03 -0.2207095E+01  0.2014705E+04  0.1570798E+01  0.2239003E-03 -0.1416852E+01
  0.3700000E+01  0.2827554E+04  0.1570796E+01  0.1111868E-02 -0.2998725E+01  0.1034003E+03 -0.3141586E+01  0.2180254E-02 -0.1031941E+00  0.8763002E+04  0.1570796E+01  0.3814697E-05  0.0000000E+00
  0.3750000E+01  0.9179843E+04 -0.1570797E+01  0.2585073E-03 -0.1659452E+01  0.2574411E+03  0.1133558E-05  0.1745339E-02 -0.3130118E+01  0.1471153E+05  0.1570796E+01  0.1630978E-03 -0.1382575E+01
  0.3800000E+01  0.2013474E+05 -0.1570796E+01  0.5339733E-02 -0.6429631E-02  0.5242613E+03 -0.8731594E-07  0.2184496E-02 -0.3131770E+01  0.1973882E+05  0.1570796E+01  0.1206313E-03  0.1892547E+01
  0.3850000E+01  0.2969804E+05 -0.1570796E+01  0.2445222E-03  0.1433863E+01  0.7050591E+03 -0.2110081E-06  0.1094960E-02  0.3125479E+01  0.2374650E+05  0.1570796E+01  0.6130279E-04  0.1664273E+01
  0.3900000E+01  0.3758127E+05 -0.1570796E+01  0.1321798E-02  0.1448051E+00  0.8098665E+03 -0.4545419E-06  0.4828312E-02 -0.3083292E+01  0.2666452E+05  0.1570796E+01  0.1756418E-03 -0.1614247E+01
  0.3950000E+01  0.4355716E+05 -0.1570796E+01  0.1557196E-02 -0.4410930E-01  0.8500119E+03  0.1166832E-06  0.2683108E-02  0.2008351E-01  0.2845478E+05  0.1570796E+01  0.8397210E-04 -0.1604874E+01
  0.4000000E+01  0.4746975E+05 -0.1570796E+01  0.5550220E-03  0.1653367E+01  0.8374467E+03  0.1457649E-06  0.6719030E-03 -0.2803031E+01  0.2911460E+05  0.1570796E+01  0.2054277E-04 -0.2761086E+01
  0.4050000E+01  0.4924142E+05 -0.1570796E+01  0.8737739E-03  0.3119762E+01  0.7841475E+03  0.2578328E-06  0.6738008E-03  0.3038086E+01  0.2867802E+05  0.1570796E+01  0.8400999E-04  0.1616220E+01
  0.4100000E+01  0.4887740E+05 -0.1570796E+01  0.1325946E-02 -0.2653497E+01  0.7015956E+03  0.1087435E-07  0.3925344E-02  0.3125679E+01  0.2721556E+05  0.1570796E+01  0.3075507E-04  0.1695151E+01
  0.4150000E+01  0.4646702E+05 -0.1570796E+01  0.6607387E-03  0.3092499E+01  0.6003645E+03 -0.2096810E-06  0.4694871E-03 -0.3128389E+01  0.2483278E+05  0.1570796E+01  0.1264041E-03  0.1661456E+01
  0.4200000E+01  0.4218169E+05 -0.1570796E+01  0.3764828E-03  0.2718739E+01  0.4898095E+03 -0.2920547E-07  0.5557624E-03  0.2944702E+01  0.2166672E+05  0.1570796E+01  0.7717105E-04  0.8728935E+00
  0.4250000E+01  0.3626901E+05 -0.1570796E+01  0.9608184E-03 -0.1147331E+01  0.3778449E+03 -0.3785975E-07  0.7448349E-03  0.4011931E+00  0.1788120E+05  0.1570796E+01  0.8281057E-04 -0.1709436E+01
  0.4300000E+01  0.2904364E+05 -0.1570796E+01  0.6387958E-03 -0.1113074E+01  0.2708458E+03  0.3521097E-07  0.7250492E-03  0.3949176E+00  0.1366053E+05  0.1570796E+01  0.3738404E-04  0.1776322E+01
  0.4350000E+01  0.2087452E+05 -0.1570796E+01  0.8485752E-03 -0.6354047E-01  0.1736129E+03  0.6852652E-06  0.1699880E-03  0.2584034E+01  0.9201960E+04  0.1570796E+01  0.4903778E-04  0.1335251E+01
  0.4400000E+01  0.1216891E+05 -0.1570796E+01  0.9016011E-03  0.2928431E+01  0.8942770E+02  0.2049525E-05  0.6108620E-03  0.5583718E+00  0.4707274E+04  0.1570796E+01  0.1041210E-03  0.1423718E+01
  0.4450000E+01  0.3354854E+04 -0.1570797E+01  0.5910419E-03  0.3508388E+00  0.2017875E+02 -0.3308293E-06  0.1796039E-03  0.1070656E+00  0.3743843E+03  0.1570802E+01  0.7629395E-05  0.1570796E+01
  0.4500000E+01  0.5139584E+04  0.1570796E+01  0.4906337E-03  0.3992767E+00  0.3347838E+02  0.3141591E+01  0.1064538E-03  0.1772994E+00  0.3611945E+04 -0.1570797E+01  0.1226056E-03 -0.1477320E+01
  0.4550000E+01  0.1290589E+05  0.1570796E+01  0.2606394E-03 -0.6164213E+00  0.7191021E+02 -0.3141593E+01  0.1057286E-02 -0.4545400E-01  0.7087982E+04 -0.1570796E+01  0.4779802E-04 -0.2070143E+01
  0.4600000E+01  0.1957662E+05  0.1570796E+01  0.2254838E-02 -0.3101825E+01  0.9629113E+02  0.3141593E+01  0.2821402E-03 -0.3081559E+01  0.9919168E+04 -0.1570796E+01  0.9544370E-04  0.1530818E+01
  0.4650000E+01  0.2484367E+05  0.1570796E+01  0.1151494E-03 -0.4971283E-01  0.1083728E+03  0.3141592E+01  0.2706781E-03 -0.2921825E+01  0.1200585E+05 -0.1570796E+01  0.3456376E-04  0.1686595E+01
  0.4700000E+01  0.2847537E+05  0.1570796E+01  0.1630490E-02  0.9489625E-01  0.1102707E+03  0.3141592E+01  0.8334167E-03 -0.3070157E+01  0.1328827E+05 -0.1570796E+01  0.2337961E-04 -0.1365401E+01
  0.4750000E+01  0.3032969E+05  0.1570796E+01  0.5603484E-03  0.2980921E+01  0.1042638E+03  0.3141593E+01  0.9808044E-03  0.6068689E-01  0.1374904E+05 -0.1570796E+01  0.8019942E-04 -0.1618379E+01
  0.4800000E+01  0.3036282E+05  0.1570796E+01  0.2138805E-03 -0.2239270E+01  0.9262513E+02  0.3141593E+01  0.1352568E-02  0.3118940E+01  0.1341363E+05 -0.1570796E+01  0.5734748E-04  0.1504228E+01
  0.4850000E+01  0.2863267E+05  0.1570796E+01  0.1074694E-02 -0.3994322E-01  0.7748229E+02  0.3141593E+01  0.1136653E-02  0.2375697E-01  0.1234846E+05 -0.1570796E+01  0.9544370E-04  0.1610775E+01
  0.4900000E+01  0.2529687E+05  0.1570796E+01  0.3145926E-03 -0.2133573E+01  0.6071389E+02 -0.3141592E+01  0.6340013E-04 -0.5313904E+00  0.1065692E+05 -0.1570797E+01  0.1907349E-05  0.1570796E+01
  0.4950000E+01  0.2060452E+05  0.1570796E+01  0.5402349E-03 -0.2915025E+01  0.4388143E+02 -0.3141593E+01  0.8150164E-04 -0.5150188E+00  0.8473118E+04 -0.1570796E+01  0.1168981E-04  0.2053954E+00
  0.5000000E+01  0.1488233E+05  0.1570796E+01  0.5342843E-03 -0.2259292E+00  0.2819349E+02  0.3141593E+01  0.1927659E-03  0.3002855E+01  0.5953811E+04 -0.1570796E+01  0.7008209E-04  0.1734826E+01
