 VARIABLES="Time (s)"
"AddedMass    1" "IRF    1"
"AddedMass    2" "IRF    2"
"AddedMass    3" "IRF    3"
"AddedMass    4" "IRF    4"
"AddedMass    5" "IRF    5"
"AddedMass    6" "IRF    6"
Zone t="DoF    1",I=   100,F=POINT
  0.0000000E+00  0.3611263E+05  0.2152331E+06 -0.7265604E-04 -0.3135369E-03  0.2653192E-01  0.3224070E-01  0.6060940E-05  0.7076309E-04 -0.1183701E+05 -0.6015420E+05 -0.6917493E-05 -0.9885388E-06
  0.1000000E+00  0.3611263E+05  0.2072310E+06 -0.7265604E-04 -0.3016898E-03  0.2653192E-01  0.3540663E-01  0.6060940E-05  0.6774400E-04 -0.1183701E+05 -0.5690171E+05 -0.6917493E-05 -0.5009075E-06
  0.2000000E+00  0.3611263E+05  0.1841242E+06 -0.7265604E-04 -0.2672462E-03  0.2653192E-01  0.4461588E-01  0.6060940E-05  0.5885113E-04 -0.1183701E+05 -0.4755762E+05 -0.6917493E-05  0.8617245E-06
  0.3000000E+00  0.3611263E+05  0.1484785E+06 -0.7265604E-04 -0.2133833E-03  0.2653192E-01  0.5902374E-01  0.6060940E-05  0.4456379E-04 -0.1183701E+05 -0.3330043E+05 -0.6917493E-05  0.2818712E-05
  0.4000000E+00  0.3611263E+05  0.1041555E+06 -0.7265604E-04 -0.1450213E-03  0.2653192E-01  0.7729133E-01  0.6060940E-05  0.2563823E-04 -0.1183701E+05 -0.1589862E+05 -0.6917493E-05  0.4965119E-05
  0.5000000E+00  0.3611263E+05  0.5576183E+05 -0.7265604E-04 -0.6831051E-04  0.2653192E-01  0.9768365E-01  0.6060940E-05  0.3055382E-05 -0.1183701E+05  0.2548293E+04 -0.6917493E-05  0.6851956E-05
  0.6000000E+00  0.3611263E+05  0.8015114E+04 -0.7265604E-04  0.9999243E-05  0.2653192E-01  0.1181989E+00  0.6060940E-05 -0.2203344E-04 -0.1183701E+05  0.1990971E+05 -0.6917493E-05  0.8073624E-05
  0.7000000E+00  0.3611263E+05 -0.3487363E+05 -0.7265604E-04  0.8323100E-04  0.2653192E-01  0.1367188E+00  0.6060940E-05 -0.4835045E-04 -0.1183701E+05  0.3431606E+05 -0.6917493E-05  0.8344461E-05
  0.8000000E+00  0.3611263E+05 -0.6970141E+05 -0.7265604E-04  0.1454225E-03  0.2653192E-01  0.1511712E+00  0.6060940E-05 -0.7451978E-04 -0.1183701E+05  0.4439738E+05 -0.6917493E-05  0.7549004E-05
  0.9000000E+00  0.3611263E+05 -0.9458661E+05 -0.7265604E-04  0.1918680E-03  0.2653192E-01  0.1596928E+00  0.6060940E-05 -0.9908142E-04 -0.1183701E+05  0.4943305E+05 -0.6917493E-05  0.5756453E-05
  0.1000000E+01  0.3611263E+05 -0.1090570E+06 -0.7265604E-04  0.2195117E-03  0.2653192E-01  0.1607793E+00  0.6060940E-05 -0.1205007E-03 -0.1183701E+05  0.4939423E+05 -0.6917493E-05  0.3197908E-05
  0.1100000E+01  0.3611263E+05 -0.1139166E+06 -0.7265604E-04  0.2271590E-03  0.2653192E-01  0.1534142E+00  0.6060940E-05 -0.1371901E-03 -0.1183701E+05  0.4487943E+05 -0.6917493E-05  0.2129439E-06
  0.1200000E+01  0.3611263E+05 -0.1109325E+06 -0.7265604E-04  0.2154975E-03  0.2653192E-01  0.1371627E+00  0.6060940E-05 -0.1475607E-03 -0.1183701E+05  0.3696195E+05 -0.6917493E-05 -0.2821449E-05
  0.1300000E+01  0.3611263E+05 -0.1024134E+06 -0.7265604E-04  0.1869361E-03  0.2653192E-01  0.1122248E+00  0.6060940E-05 -0.1501168E-03 -0.1183701E+05  0.2698121E+05 -0.6917493E-05 -0.5563319E-05
  0.1400000E+01  0.3611263E+05 -0.9076283E+05 -0.7265604E-04  0.1452910E-03  0.2653192E-01  0.7944191E-01  0.6060940E-05 -0.1435982E-03 -0.1183701E+05  0.1631763E+05 -0.6917493E-05 -0.7763725E-05
  0.1500000E+01  0.3611263E+05 -0.7808717E+05 -0.7265604E-04  0.9535221E-04  0.2653192E-01  0.4025446E-01  0.6060940E-05 -0.1271598E-03 -0.1183701E+05  0.6189452E+04 -0.6917493E-05 -0.9298464E-05
  0.1600000E+01  0.3611263E+05 -0.6592246E+05 -0.7265604E-04  0.4237988E-04  0.2653192E-01 -0.3386593E-02  0.6060940E-05 -0.1005659E-03 -0.1183701E+05 -0.2496160E+04 -0.6917493E-05 -0.1016843E-04
  0.1700000E+01  0.3611263E+05 -0.5511308E+05 -0.7265604E-04 -0.8425901E-05  0.2653192E-01 -0.4914965E-01  0.6060940E-05 -0.6436274E-04 -0.1183701E+05 -0.9219822E+04 -0.6917493E-05 -0.1047106E-04
  0.1800000E+01  0.3611263E+05 -0.4584456E+05 -0.7265604E-04 -0.5243163E-04  0.2653192E-01 -0.9448398E-01  0.6060940E-05 -0.1998932E-04 -0.1183701E+05 -0.1385010E+05 -0.6917493E-05 -0.1035221E-04
  0.1900000E+01  0.3611263E+05 -0.3780182E+05 -0.7265604E-04 -0.8600899E-04  0.2653192E-01 -0.1368015E+00  0.6060940E-05  0.3021046E-04 -0.1183701E+05 -0.1657772E+05 -0.6917493E-05 -0.9952090E-05
  0.2000000E+01  0.3611263E+05 -0.3040286E+05 -0.7265604E-04 -0.1068652E-03  0.2653192E-01 -0.1736646E+00  0.6060940E-05  0.8310063E-04 -0.1183701E+05 -0.1780543E+05 -0.6917493E-05 -0.9359911E-05
  0.2100000E+01  0.3611263E+05 -0.2304767E+05 -0.7265604E-04 -0.1142312E-03  0.2653192E-01 -0.2029662E+00  0.6060940E-05  0.1349944E-03 -0.1183701E+05 -0.1802067E+05 -0.6917493E-05 -0.8589334E-05
  0.2200000E+01  0.3611263E+05 -0.1532643E+05 -0.7265604E-04 -0.1088864E-03  0.2653192E-01 -0.2230870E+00  0.6060940E-05  0.1820058E-03 -0.1183701E+05 -0.1767842E+05 -0.6917493E-05 -0.7580977E-05
  0.2300000E+01  0.3611263E+05 -0.7145771E+04 -0.7265604E-04 -0.9301215E-04  0.2653192E-01 -0.2330182E+00  0.6060940E-05  0.2204710E-03 -0.1183701E+05 -0.1711558E+05 -0.6917493E-05 -0.6231373E-05
  0.2400000E+01  0.3611263E+05  0.1246095E+04 -0.7265604E-04 -0.6988226E-04  0.2653192E-01 -0.2324387E+00  0.6060940E-05  0.2473749E-03 -0.1183701E+05 -0.1650941E+05 -0.6917493E-05 -0.4440444E-05
  0.2500000E+01  0.3611263E+05  0.9329752E+04 -0.7265604E-04 -0.4342107E-04  0.2653192E-01 -0.2217406E+00  0.6060940E-05  0.2607180E-03 -0.1183701E+05 -0.1588155E+05 -0.6917493E-05 -0.2164628E-05
  0.2600000E+01  0.3611263E+05  0.1645422E+05 -0.7265604E-04 -0.1767665E-04  0.2653192E-01 -0.2020002E+00  0.6060940E-05  0.2597594E-03 -0.1183701E+05 -0.1513925E+05 -0.6917493E-05  0.5394361E-06
  0.2700000E+01  0.3611263E+05  0.2200567E+05 -0.7265604E-04  0.3725766E-05  0.2653192E-01 -0.1748971E+00  0.6060940E-05  0.2450871E-03 -0.1183701E+05 -0.1413851E+05 -0.6917493E-05  0.3493592E-05
  0.2800000E+01  0.3611263E+05  0.2556221E+05 -0.7265604E-04  0.1808010E-04  0.2653192E-01 -0.1425839E+00  0.6060940E-05  0.2184988E-03 -0.1183701E+05 -0.1275058E+05 -0.6917493E-05  0.6407754E-05
  0.2900000E+01  0.3611263E+05  0.2699785E+05 -0.7265604E-04  0.2397249E-04  0.2653192E-01 -0.1075218E+00  0.6060940E-05  0.1827090E-03 -0.1183701E+05 -0.1091525E+05 -0.6917493E-05  0.8920959E-05
  0.3000000E+01  0.3611263E+05  0.2651319E+05 -0.7265604E-04  0.2147362E-04  0.2653192E-01 -0.7228873E-01  0.6060940E-05  0.1409249E-03 -0.1183701E+05 -0.8668953E+04 -0.6917493E-05  0.1066704E-04
  0.3100000E+01  0.3611263E+05  0.2458974E+05 -0.7265604E-04  0.1211694E-04  0.2653192E-01 -0.3938065E-01  0.6060940E-05  0.9636761E-04 -0.1183701E+05 -0.6143012E+04 -0.6917493E-05  0.1135144E-04
  0.3200000E+01  0.3611263E+05  0.2188167E+05 -0.7265604E-04 -0.1342933E-05  0.2653192E-01 -0.1101794E-01  0.6060940E-05  0.5182291E-04 -0.1183701E+05 -0.3535592E+04 -0.6917493E-05  0.1082215E-04
  0.3300000E+01  0.3611263E+05  0.1907322E+05 -0.7265604E-04 -0.1535815E-04  0.2653192E-01  0.1102519E-01  0.6060940E-05  0.9299310E-05 -0.1183701E+05 -0.1066298E+04 -0.6917493E-05  0.9117750E-05
  0.3400000E+01  0.3611263E+05  0.1673678E+05 -0.7265604E-04 -0.2614152E-04  0.2653192E-01  0.2555451E-01  0.6060940E-05 -0.3013886E-04 -0.1183701E+05  0.1073536E+04 -0.6917493E-05  0.6480273E-05
  0.3500000E+01  0.3611263E+05  0.1522343E+05 -0.7265604E-04 -0.3026089E-04  0.2653192E-01  0.3204162E-01  0.6060940E-05 -0.6633730E-04 -0.1183701E+05  0.2761852E+04 -0.6917493E-05  0.3327028E-05
  0.3600000E+01  0.3611263E+05  0.1460999E+05 -0.7265604E-04 -0.2518056E-04  0.2653192E-01  0.3065568E-01  0.6060940E-05 -0.9982361E-04 -0.1183701E+05  0.3968301E+04 -0.6917493E-05  0.1850159E-06
  0.3700000E+01  0.3611263E+05  0.1471078E+05 -0.7265604E-04 -0.9665084E-05  0.2653192E-01  0.2223654E-01  0.6060940E-05 -0.1314331E-03 -0.1183701E+05  0.4753177E+04 -0.6917493E-05 -0.2400614E-05
  0.3800000E+01  0.3611263E+05  0.1514807E+05 -0.7265604E-04  0.1601847E-04  0.2653192E-01  0.8213434E-02  0.6060940E-05 -0.1618677E-03 -0.1183701E+05  0.5244194E+04 -0.6917493E-05 -0.3966338E-05
  0.3900000E+01  0.3611263E+05  0.1546162E+05 -0.7265604E-04  0.5012746E-04  0.2653192E-01 -0.9524291E-02  0.6060940E-05 -0.1912820E-03 -0.1183701E+05  0.5597815E+04 -0.6917493E-05 -0.4218305E-05
  0.4000000E+01  0.3611263E+05  0.1522911E+05 -0.7265604E-04  0.8968786E-04  0.2653192E-01 -0.2879288E-01  0.6060940E-05 -0.2189876E-03 -0.1183701E+05  0.5955373E+04 -0.6917493E-05 -0.3090558E-05
  0.4100000E+01  0.3611263E+05  0.1416969E+05 -0.7265604E-04  0.1309079E-03  0.2653192E-01 -0.4730196E-01  0.6060940E-05 -0.2433503E-03 -0.1183701E+05  0.6404990E+04 -0.6917493E-05 -0.7611159E-06
  0.4200000E+01  0.3611263E+05  0.1220669E+05 -0.7265604E-04  0.1696839E-03  0.2653192E-01 -0.6284773E-01  0.6060940E-05 -0.2619123E-03 -0.1183701E+05  0.6958698E+04 -0.6917493E-05  0.2377735E-05
  0.4300000E+01  0.3611263E+05  0.9477842E+04 -0.7265604E-04  0.2021087E-03  0.2653192E-01 -0.7349514E-01  0.6060940E-05 -0.2717356E-03 -0.1183701E+05  0.7549881E+04 -0.6917493E-05  0.5789262E-05
  0.4400000E+01  0.3611263E+05  0.6293427E+04 -0.7265604E-04  0.2249020E-03  0.2653192E-01 -0.7773504E-01  0.6060940E-05 -0.2699103E-03 -0.1183701E+05  0.8051176E+04 -0.6917493E-05  0.8888850E-05
  0.4500000E+01  0.3611263E+05  0.3055427E+04 -0.7265604E-04  0.2356977E-03  0.2653192E-01 -0.7460245E-01  0.6060940E-05 -0.2541407E-03 -0.1183701E+05  0.8308109E+04 -0.6917493E-05  0.1114763E-04
  0.4600000E+01  0.3611263E+05  0.1591690E+03 -0.7265604E-04  0.2331601E-03  0.2653192E-01 -0.6374860E-01  0.6060940E-05 -0.2233012E-03 -0.1183701E+05  0.8179750E+04 -0.6917493E-05  0.1218324E-04
  0.4700000E+01  0.3611263E+05 -0.2097994E+04 -0.7265604E-04  0.2169402E-03  0.2653192E-01 -0.4546189E-01  0.6060940E-05 -0.1778515E-03 -0.1183701E+05  0.7576683E+04 -0.6917493E-05  0.1182069E-04
  0.4800000E+01  0.3611263E+05 -0.3579160E+04 -0.7265604E-04  0.1875098E-03  0.2653192E-01 -0.2063893E-01  0.6060940E-05 -0.1200237E-03 -0.1183701E+05  0.6486995E+04 -0.6917493E-05  0.1011214E-04
  0.4900000E+01  0.3611263E+05 -0.4327946E+04 -0.7265604E-04  0.1459403E-03  0.2653192E-01  0.9291653E-02  0.6060940E-05 -0.5372940E-04 -0.1183701E+05  0.4984458E+04 -0.6917493E-05  0.7313961E-05
  0.5000000E+01  0.3611263E+05 -0.4543397E+04 -0.7265604E-04  0.9369426E-04  0.2653192E-01  0.4248288E-01  0.6060940E-05  0.1581521E-04 -0.1183701E+05  0.3217238E+04 -0.6917493E-05  0.3827762E-05
  0.5100000E+01  0.3611263E+05 -0.4517499E+04 -0.7265604E-04  0.3248601E-04  0.2653192E-01  0.7681161E-01  0.6060940E-05  0.8269749E-04 -0.1183701E+05  0.1380071E+04 -0.6917493E-05  0.1191152E-06
  0.5200000E+01  0.3611263E+05 -0.4552665E+04 -0.7265604E-04 -0.3575590E-04  0.2653192E-01  0.1100373E+00  0.6060940E-05  0.1410626E-03 -0.1183701E+05 -0.3234098E+03 -0.6917493E-05 -0.3368631E-05
  0.5300000E+01  0.3611263E+05 -0.4880155E+04 -0.7265604E-04 -0.1088250E-03  0.2653192E-01  0.1399651E+00  0.6060940E-05  0.1858921E-03 -0.1183701E+05 -0.1719228E+04 -0.6917493E-05 -0.6287649E-05
  0.5400000E+01  0.3611263E+05 -0.5599604E+04 -0.7265604E-04 -0.1841160E-03  0.2653192E-01  0.1646028E+00  0.6060940E-05  0.2136882E-03 -0.1183701E+05 -0.2694017E+04 -0.6917493E-05 -0.8432799E-05
  0.5500000E+01  0.3611263E+05 -0.6653996E+04 -0.7265604E-04 -0.2584969E-03  0.2653192E-01  0.1823004E+00  0.6060940E-05  0.2229482E-03 -0.1183701E+05 -0.3211609E+04 -0.6917493E-05 -0.9755673E-05
  0.5600000E+01  0.3611263E+05 -0.7845482E+04 -0.7265604E-04 -0.3282535E-03  0.2653192E-01  0.1918641E+00  0.6060940E-05  0.2143566E-03 -0.1183701E+05 -0.3312322E+04 -0.6917493E-05 -0.1034615E-04
  0.5700000E+01  0.3611263E+05 -0.8887047E+04 -0.7265604E-04 -0.3891630E-03  0.2653192E-01  0.1926392E+00  0.6060940E-05  0.1906660E-03 -0.1183701E+05 -0.3096077E+04 -0.6917493E-05 -0.1038912E-04
  0.5800000E+01  0.3611263E+05 -0.9476870E+04 -0.7265604E-04 -0.4367314E-03  0.2653192E-01  0.1845543E+00  0.6060940E-05  0.1562857E-03 -0.1183701E+05 -0.2694085E+04 -0.6917493E-05 -0.1010920E-04
  0.5900000E+01  0.3611263E+05 -0.9376554E+04 -0.7265604E-04 -0.4665944E-03  0.2653192E-01  0.1681284E+00  0.6060940E-05  0.1166468E-03 -0.1183701E+05 -0.2236481E+04 -0.6917493E-05 -0.9716830E-05
  0.6000000E+01  0.3611263E+05 -0.8474181E+04 -0.7265604E-04 -0.4750310E-03  0.2653192E-01  0.1444377E+00  0.6060940E-05  0.7744625E-04 -0.1183701E+05 -0.1823727E+04 -0.6917493E-05 -0.9368266E-05
  0.6100000E+01  0.3611263E+05 -0.6817230E+04 -0.7265604E-04 -0.4595142E-03  0.2653192E-01  0.1150424E+00  0.6060940E-05  0.4388300E-04 -0.1183701E+05 -0.1508230E+04 -0.6917493E-05 -0.9146285E-05
  0.6200000E+01  0.3611263E+05 -0.4607636E+04 -0.7265604E-04 -0.4191909E-03  0.2653192E-01  0.8188225E-01  0.6060940E-05  0.2000216E-04 -0.1183701E+05 -0.1290108E+04 -0.6917493E-05 -0.9063032E-05
  0.6300000E+01  0.3611263E+05 -0.2160901E+04 -0.7265604E-04 -0.3552005E-03  0.2653192E-01  0.4714264E-01  0.6060940E-05  0.8232895E-05 -0.1183701E+05 -0.1127038E+04 -0.6917493E-05 -0.9080373E-05
  0.6400000E+01  0.3611263E+05  0.1609425E+03 -0.7265604E-04 -0.2707407E-03  0.2653192E-01  0.1309948E-01  0.6060940E-05  0.9176070E-05 -0.1183701E+05 -0.9550081E+03 -0.6917493E-05 -0.9138246E-05
  0.6500000E+01  0.3611263E+05  0.2026094E+04 -0.7265604E-04 -0.1708543E-03  0.2653192E-01 -0.1804218E-01  0.6060940E-05  0.2165079E-04 -0.1183701E+05 -0.7139360E+03 -0.6917493E-05 -0.9180808E-05
  0.6600000E+01  0.3611263E+05  0.3201306E+04 -0.7265604E-04 -0.6194592E-04  0.2653192E-01 -0.4431076E-01  0.6060940E-05  0.4297260E-04 -0.1183701E+05 -0.3710826E+03 -0.6917493E-05 -0.9171636E-05
  0.6700000E+01  0.3611263E+05  0.3596789E+04 -0.7265604E-04  0.4890555E-04  0.2653192E-01 -0.6411440E-01  0.6060940E-05  0.6939913E-04 -0.1183701E+05  0.6367574E+02 -0.6917493E-05 -0.9092729E-05
  0.6800000E+01  0.3611263E+05  0.3277379E+04 -0.7265604E-04  0.1547273E-03  0.2653192E-01 -0.7636165E-01  0.6060940E-05  0.9666455E-04 -0.1183701E+05  0.5350551E+03 -0.6917493E-05 -0.8928670E-05
  0.6900000E+01  0.3611263E+05  0.2438762E+04 -0.7265604E-04  0.2494089E-03  0.2653192E-01 -0.8054615E-01  0.6060940E-05  0.1205192E-03 -0.1183701E+05  0.9527941E+03 -0.6917493E-05 -0.8642117E-05
  0.7000000E+01  0.3611263E+05  0.1355696E+04 -0.7265604E-04  0.3282995E-03  0.2653192E-01 -0.7678536E-01  0.6060940E-05  0.1372007E-03 -0.1183701E+05  0.1212695E+04 -0.6917493E-05 -0.8150116E-05
  0.7100000E+01  0.3611263E+05  0.3151364E+03 -0.7265604E-04  0.3885617E-03  0.2653192E-01 -0.6581154E-01  0.6060940E-05  0.1437848E-03 -0.1183701E+05  0.1223208E+04 -0.6917493E-05 -0.7312748E-05
  0.7200000E+01  0.3611263E+05 -0.4493140E+03 -0.7265604E-04  0.4292269E-03  0.2653192E-01 -0.4891204E-01  0.6060940E-05  0.1383962E-03 -0.1183701E+05  0.9309232E+03 -0.6917493E-05 -0.5941691E-05
  0.7300000E+01  0.3611263E+05 -0.8061903E+03 -0.7265604E-04  0.4509694E-03  0.2653192E-01 -0.2782585E-01  0.6060940E-05  0.1202755E-03 -0.1183701E+05  0.3385173E+03 -0.6917493E-05 -0.3832432E-05
  0.7400000E+01  0.3611263E+05 -0.7475648E+03 -0.7265604E-04  0.4556588E-03  0.2653192E-01 -0.4602396E-02  0.6060940E-05  0.8973130E-04 -0.1183701E+05 -0.4893415E+03 -0.6917493E-05 -0.8158162E-06
  0.7500000E+01  0.3611263E+05 -0.3789666E+03 -0.7265604E-04  0.4457943E-03  0.2653192E-01  0.1856533E-01  0.6060940E-05  0.4801170E-04 -0.1183701E+05 -0.1434075E+04 -0.6917493E-05  0.3180718E-05
  0.7600000E+01  0.3611263E+05  0.1183857E+03 -0.7265604E-04  0.4239453E-03  0.2653192E-01  0.3951688E-01  0.6060940E-05 -0.2866798E-05 -0.1183701E+05 -0.2343721E+04 -0.6917493E-05  0.8077693E-05
  0.7700000E+01  0.3611263E+05  0.5424139E+03 -0.7265604E-04  0.3923113E-03  0.2653192E-01  0.5629883E-01  0.6060940E-05 -0.6029887E-04 -0.1183701E+05 -0.3061569E+04 -0.6917493E-05  0.1360954E-04
  0.7800000E+01  0.3611263E+05  0.7278810E+03 -0.7265604E-04  0.3524827E-03  0.2653192E-01  0.6731822E-01  0.6060940E-05 -0.1212582E-03 -0.1183701E+05 -0.3456551E+04 -0.6917493E-05  0.1932530E-04
  0.7900000E+01  0.3611263E+05  0.5925837E+03 -0.7265604E-04  0.3054338E-03  0.2653192E-01  0.7146733E-01  0.6060940E-05 -0.1824496E-03 -0.1183701E+05 -0.3448991E+04 -0.6917493E-05  0.2463086E-04
  0.8000000E+01  0.3611263E+05  0.1603963E+03 -0.7265604E-04  0.2517287E-03  0.2653192E-01  0.6820611E-01  0.6060940E-05 -0.2404455E-03 -0.1183701E+05 -0.3025928E+04 -0.6917493E-05  0.2886961E-04
  0.8100000E+01  0.3611263E+05 -0.4441800E+03 -0.7265604E-04  0.1918701E-03  0.2653192E-01  0.5759821E-01  0.6060940E-05 -0.2918248E-03 -0.1183701E+05 -0.2242985E+04 -0.6917493E-05  0.3143015E-04
  0.8200000E+01  0.3611263E+05 -0.1028119E+04 -0.7265604E-04  0.1266859E-03  0.2653192E-01  0.4029966E-01  0.6060940E-05 -0.3333201E-03 -0.1183701E+05 -0.1212652E+04 -0.6917493E-05  0.3186049E-04
  0.8300000E+01  0.3611263E+05 -0.1380711E+04 -0.7265604E-04  0.5764200E-04  0.2653192E-01  0.1750013E-01  0.6060940E-05 -0.3619880E-03 -0.1183701E+05 -0.8170813E+02 -0.6917493E-05  0.2996589E-04
  0.8400001E+01  0.3611263E+05 -0.1329883E+04 -0.7265604E-04 -0.1300251E-04  0.2653192E-01 -0.9174690E-02  0.6060940E-05 -0.3753926E-03 -0.1183701E+05  0.9968950E+03 -0.6917493E-05  0.2586712E-04
  0.8500000E+01  0.3611263E+05 -0.7904102E+03 -0.7265604E-04 -0.8226468E-04  0.2653192E-01 -0.3779281E-01  0.6060940E-05 -0.3717935E-03 -0.1183701E+05  0.1891733E+04 -0.6917493E-05  0.2000390E-04
  0.8600000E+01  0.3611263E+05  0.2082103E+03 -0.7265604E-04 -0.1467252E-03  0.2653192E-01 -0.6626798E-01  0.6060940E-05 -0.3503168E-03 -0.1183701E+05  0.2514336E+04 -0.6917493E-05  0.1307668E-04
  0.8700000E+01  0.3611263E+05  0.1521164E+04 -0.7265604E-04 -0.2029785E-03  0.2653192E-01 -0.9251822E-01  0.6060940E-05 -0.3110786E-03 -0.1183701E+05  0.2830125E+04 -0.6917493E-05  0.5935648E-05
  0.8800000E+01  0.3611263E+05  0.2915507E+04 -0.7265604E-04 -0.2481661E-03  0.2653192E-01 -0.1146255E+00  0.6060940E-05 -0.2552408E-03 -0.1183701E+05  0.2857402E+04 -0.6917493E-05 -0.5658407E-06
  0.8900001E+01  0.3611263E+05  0.4118919E+04 -0.7265604E-04 -0.2804606E-03  0.2653192E-01 -0.1309786E+00  0.6060940E-05 -0.1849850E-03 -0.1183701E+05  0.2655516E+04 -0.6917493E-05 -0.5724046E-05
  0.9000000E+01  0.3611263E+05  0.4878403E+04 -0.7265604E-04 -0.2994005E-03  0.2653192E-01 -0.1403939E+00  0.6060940E-05 -0.1033961E-03 -0.1183701E+05  0.2305756E+04 -0.6917493E-05 -0.9114461E-05
  0.9100000E+01  0.3611263E+05  0.5016163E+04 -0.7265604E-04 -0.3059869E-03  0.2653192E-01 -0.1422049E+00  0.6060940E-05 -0.1426508E-04 -0.1183701E+05  0.1889966E+04 -0.6917493E-05 -0.1066974E-04
  0.9200000E+01  0.3611263E+05  0.4468877E+04 -0.7265604E-04 -0.3025076E-03  0.2653192E-01 -0.1363108E+00  0.6060940E-05  0.7815517E-04 -0.1183701E+05  0.1472039E+04 -0.6917493E-05 -0.1068783E-04
  0.9300000E+01  0.3611263E+05  0.3302150E+04 -0.7265604E-04 -0.2921102E-03  0.2653192E-01 -0.1231848E+00  0.6060940E-05  0.1694310E-03 -0.1183701E+05  0.1086502E+04 -0.6917493E-05 -0.9766759E-05
  0.9400001E+01  0.3611263E+05  0.1697212E+04 -0.7265604E-04 -0.2782037E-03  0.2653192E-01 -0.1038399E+00  0.6060940E-05  0.2552107E-03 -0.1183701E+05  0.7363553E+03 -0.6917493E-05 -0.8676346E-05
  0.9500000E+01  0.3611263E+05 -0.8738787E+02 -0.7265604E-04 -0.2637983E-03  0.2653192E-01 -0.7975177E-01  0.6060940E-05  0.3314608E-03 -0.1183701E+05  0.3999769E+03 -0.6917493E-05 -0.8191068E-05
  0.9600000E+01  0.3611263E+05 -0.1769335E+04 -0.7265604E-04 -0.2509179E-03  0.2653192E-01 -0.5274606E-01  0.6060940E-05  0.3946473E-03 -0.1183701E+05  0.4466965E+02 -0.6917493E-05 -0.8919142E-05
  0.9700000E+01  0.3611263E+05 -0.3099254E+04 -0.7265604E-04 -0.2402046E-03  0.2653192E-01 -0.2485888E-01  0.6060940E-05  0.4418556E-03 -0.1183701E+05 -0.3571620E+03 -0.6917493E-05 -0.1116170E-04
  0.9800000E+01  0.3611263E+05 -0.3908553E+04 -0.7265604E-04 -0.2307971E-03  0.2653192E-01  0.1823877E-02  0.6060940E-05  0.4708651E-03 -0.1183701E+05 -0.8135516E+03 -0.6917493E-05 -0.1483363E-04
  0.9900001E+01  0.3611263E+05 -0.4136875E+04 -0.7265604E-04 -0.2205150E-03  0.2653192E-01  0.2533003E-01  0.6060940E-05  0.4801813E-03 -0.1183701E+05 -0.1304461E+04 -0.6917493E-05 -0.1946417E-04
Zone t="DoF    2",I=   100,F=POINT
  0.0000000E+00 -0.1382259E-04  0.2712336E-03  0.3611242E+05  0.2152328E+06 -0.5190844E-03 -0.3728840E-03  0.1183699E+05  0.6015422E+05 -0.9223085E-04  0.7712065E-04 -0.2913160E-03 -0.3072124E-02
  0.1000000E+00 -0.1382259E-04  0.2623917E-03  0.3611242E+05  0.2072307E+06 -0.5190844E-03 -0.3590882E-03  0.1183699E+05  0.5690173E+05 -0.9223085E-04  0.7610439E-04 -0.2913160E-03 -0.2958830E-02
  0.2000000E+00 -0.1382259E-04  0.2365653E-03  0.3611242E+05  0.1841239E+06 -0.5190844E-03 -0.3190118E-03  0.1183699E+05  0.4755765E+05 -0.9223085E-04  0.7292009E-04 -0.2913160E-03 -0.2629994E-02
  0.3000000E+00 -0.1382259E-04  0.1958127E-03  0.3611242E+05  0.1484783E+06 -0.5190844E-03 -0.2564394E-03  0.1183699E+05  0.3330049E+05 -0.9223085E-04  0.6720432E-04 -0.2913160E-03 -0.2117373E-02
  0.4000000E+00 -0.1382259E-04  0.1434268E-03  0.3611242E+05  0.1041553E+06 -0.5190844E-03 -0.1771943E-03  0.1183699E+05  0.1589872E+05 -0.9223085E-04  0.5848653E-04 -0.2913160E-03 -0.1469524E-02
  0.5000000E+00 -0.1382259E-04  0.8371563E-04  0.3611242E+05  0.5576168E+05 -0.5190844E-03 -0.8848212E-04  0.1183699E+05 -0.2548175E+04 -0.9223085E-04  0.4636278E-04 -0.2913160E-03 -0.7459430E-03
  0.6000000E+00 -0.1382259E-04  0.2167659E-04  0.3611242E+05  0.8014994E+04 -0.5190844E-03  0.1906852E-05  0.1183699E+05 -0.1990956E+05 -0.9223085E-04  0.3068634E-04 -0.2913160E-03 -0.1012184E-04
  0.7000000E+00 -0.1382259E-04 -0.3743361E-04  0.3611242E+05 -0.3487371E+05 -0.5190844E-03  0.8643144E-04  0.1183699E+05 -0.3431589E+05 -0.9223085E-04  0.1173351E-04 -0.2913160E-03  0.6774702E-03
  0.8000000E+00 -0.1382259E-04 -0.8861093E-04  0.3611242E+05 -0.6970145E+05 -0.5190844E-03  0.1585667E-03  0.1183699E+05 -0.4439721E+05 -0.9223085E-04 -0.9694669E-05 -0.2913160E-03  0.1265533E-02
  0.9000000E+00 -0.1382259E-04 -0.1276506E-03  0.3611242E+05 -0.9458662E+05 -0.5190844E-03  0.2134121E-03  0.1183699E+05 -0.4943290E+05 -0.9223085E-04 -0.3226305E-04 -0.2913160E-03  0.1716430E-02
  0.1000000E+01 -0.1382259E-04 -0.1516587E-03  0.3611242E+05 -0.1090571E+06 -0.5190844E-03  0.2480747E-03  0.1183699E+05 -0.4939408E+05 -0.9223085E-04 -0.5419983E-04 -0.2913160E-03  0.2008582E-02
  0.1100000E+01 -0.1382259E-04 -0.1594449E-03  0.3611242E+05 -0.1139166E+06 -0.5190844E-03  0.2617932E-03  0.1183699E+05 -0.4487932E+05 -0.9223085E-04 -0.7349408E-04 -0.2913160E-03  0.2136661E-02
  0.1200000E+01 -0.1382259E-04 -0.1517192E-03  0.3611242E+05 -0.1109324E+06 -0.5190844E-03  0.2558056E-03  0.1183699E+05 -0.3696188E+05 -0.9223085E-04 -0.8816813E-04 -0.2913160E-03  0.2109835E-02
  0.1300000E+01 -0.1382259E-04 -0.1310344E-03  0.3611242E+05 -0.1024133E+06 -0.5190844E-03  0.2329982E-03  0.1183699E+05 -0.2698120E+05 -0.9223085E-04 -0.9658276E-04 -0.2913160E-03  0.1948592E-02
  0.1400000E+01 -0.1382259E-04 -0.1014564E-03  0.3611242E+05 -0.9076276E+05 -0.5190844E-03  0.1973980E-03  0.1183699E+05 -0.1631766E+05 -0.9223085E-04 -0.9772350E-04 -0.2913160E-03  0.1680831E-02
  0.1500000E+01 -0.1382259E-04 -0.6799297E-04  0.3611242E+05 -0.7808712E+05 -0.5190844E-03  0.1535912E-03  0.1183699E+05 -0.6189542E+04 -0.9223085E-04 -0.9141534E-04 -0.2913160E-03  0.1337904E-02
  0.1600000E+01 -0.1382259E-04 -0.3585933E-04  0.3611242E+05 -0.6592235E+05 -0.5190844E-03  0.1061495E-03  0.1183699E+05  0.2496009E+04 -0.9223085E-04 -0.7842171E-04 -0.2913160E-03  0.9512182E-03
  0.1700000E+01 -0.1382259E-04 -0.9696256E-05  0.3611242E+05 -0.5511295E+05 -0.5190844E-03  0.5913807E-04  0.1183699E+05  0.9219630E+04 -0.9223085E-04 -0.6039964E-04 -0.2913160E-03  0.5497670E-03
  0.1800000E+01 -0.1382259E-04  0.7124257E-05  0.3611242E+05 -0.4584441E+05 -0.5190844E-03  0.1576507E-04  0.1183699E+05  0.1384987E+05 -0.9223085E-04 -0.3970824E-04 -0.2913160E-03  0.1587290E-03
  0.1900000E+01 -0.1382259E-04  0.1298224E-04  0.3611242E+05 -0.3780167E+05 -0.5190844E-03 -0.2180066E-04  0.1183699E+05  0.1657747E+05 -0.9223085E-04 -0.1909123E-04 -0.2913160E-03 -0.2009766E-03
  0.2000000E+01 -0.1382259E-04  0.8190610E-05  0.3611242E+05 -0.3040271E+05 -0.5190844E-03 -0.5244265E-04  0.1183699E+05  0.1780516E+05 -0.9223085E-04 -0.1279065E-05 -0.2913160E-03 -0.5124609E-03
  0.2100000E+01 -0.1382259E-04 -0.5162249E-05  0.3611242E+05 -0.2304749E+05 -0.5190844E-03 -0.7595898E-04  0.1183699E+05  0.1802040E+05 -0.9223085E-04  0.1142707E-04 -0.2913160E-03 -0.7623471E-03
  0.2200000E+01 -0.1382259E-04 -0.2367858E-04  0.3611242E+05 -0.1532625E+05 -0.5190844E-03 -0.9282155E-04  0.1183699E+05  0.1767817E+05 -0.9223085E-04  0.1752178E-04 -0.2913160E-03 -0.9403349E-03
  0.2300000E+01 -0.1382259E-04 -0.4333681E-04  0.3611242E+05 -0.7145584E+04 -0.5190844E-03 -0.1038848E-03  0.1183699E+05  0.1711536E+05 -0.9223085E-04  0.1654848E-04 -0.2913160E-03 -0.1039106E-02
  0.2400000E+01 -0.1382259E-04 -0.6026397E-04  0.3611242E+05  0.1246271E+04 -0.5190844E-03 -0.1100971E-03  0.1183699E+05  0.1650922E+05 -0.9223085E-04  0.9192569E-05 -0.2913160E-03 -0.1054678E-02
  0.2500000E+01 -0.1382259E-04 -0.7144288E-04  0.3611242E+05  0.9329922E+04 -0.5190844E-03 -0.1122647E-03  0.1183699E+05  0.1588141E+05 -0.9223085E-04 -0.2804597E-05 -0.2913160E-03 -0.9871286E-03
  0.2600000E+01 -0.1382259E-04 -0.7521853E-04  0.3611242E+05  0.1645437E+05 -0.5190844E-03 -0.1108986E-03  0.1183699E+05  0.1513916E+05 -0.9223085E-04 -0.1690254E-04 -0.2913160E-03 -0.8414704E-03
  0.2700000E+01 -0.1382259E-04 -0.7150767E-04  0.3611242E+05  0.2200581E+05 -0.5190844E-03 -0.1061623E-03  0.1183699E+05  0.1413848E+05 -0.9223085E-04 -0.3014731E-04 -0.2913160E-03 -0.6283438E-03
  0.2800000E+01 -0.1382259E-04 -0.6168151E-04  0.3611242E+05  0.2556234E+05 -0.5190844E-03 -0.9791101E-04  0.1183699E+05  0.1275060E+05 -0.9223085E-04 -0.3962485E-04 -0.2913160E-03 -0.3642132E-03
  0.2900000E+01 -0.1382259E-04 -0.4815521E-04  0.3611242E+05  0.2699794E+05 -0.5190844E-03 -0.8580874E-04  0.1183699E+05  0.1091534E+05 -0.9223085E-04 -0.4290539E-04 -0.2913160E-03 -0.7081378E-04
  0.3000000E+01 -0.1382259E-04 -0.3378317E-04  0.3611242E+05  0.2651325E+05 -0.5190844E-03 -0.6948898E-04  0.1183699E+05  0.8669081E+04 -0.9223085E-04 -0.3840584E-04 -0.2913160E-03  0.2262576E-03
  0.3100000E+01 -0.1382259E-04 -0.2119436E-04  0.3611242E+05  0.2458979E+05 -0.5190844E-03 -0.4872994E-04  0.1183699E+05  0.6143168E+04 -0.9223085E-04 -0.2561248E-04 -0.2913160E-03  0.4997423E-03
  0.3200000E+01 -0.1382259E-04 -0.1221436E-04  0.3611242E+05  0.2188170E+05 -0.5190844E-03 -0.2360447E-04  0.1183699E+05  0.3535776E+04 -0.9223085E-04 -0.5129487E-05 -0.2913160E-03  0.7234580E-03
  0.3300000E+01 -0.1382259E-04 -0.7493991E-05  0.3611242E+05  0.1907322E+05 -0.5190844E-03  0.5407106E-05  0.1183699E+05  0.1066486E+04 -0.9223085E-04  0.2144633E-04 -0.2913160E-03  0.8752158E-03
  0.3400000E+01 -0.1382259E-04 -0.6419637E-05  0.3611242E+05  0.1673675E+05 -0.5190844E-03  0.3736632E-04  0.1183699E+05 -0.1073349E+04 -0.9223085E-04  0.5179294E-04 -0.2913160E-03  0.9394696E-03
  0.3500000E+01 -0.1382259E-04 -0.7313188E-05  0.3611242E+05  0.1522338E+05 -0.5190844E-03  0.7088697E-04  0.1183699E+05 -0.2761685E+04 -0.9223085E-04  0.8321831E-04 -0.2913160E-03  0.9092839E-03
  0.3600000E+01 -0.1382259E-04 -0.7865712E-05  0.3611242E+05  0.1460994E+05 -0.5190844E-03  0.1042005E-03  0.1183699E+05 -0.3968164E+04 -0.9223085E-04  0.1130335E-03 -0.2913160E-03  0.7873100E-03
  0.3700000E+01 -0.1382259E-04 -0.5698982E-05  0.3611242E+05  0.1471071E+05 -0.5190844E-03  0.1352653E-03  0.1183699E+05 -0.4753072E+04 -0.9223085E-04  0.1388741E-03 -0.2913160E-03  0.5855958E-03
  0.3800000E+01 -0.1382259E-04  0.1076806E-05  0.3611242E+05  0.1514797E+05 -0.5190844E-03  0.1619056E-03  0.1183699E+05 -0.5244128E+04 -0.9223085E-04  0.1589194E-03 -0.2913160E-03  0.3242547E-03
  0.3900000E+01 -0.1382259E-04  0.1343508E-04  0.3611242E+05  0.1546150E+05 -0.5190844E-03  0.1819662E-03  0.1183699E+05 -0.5597796E+04 -0.9223085E-04  0.1719776E-03 -0.2913160E-03  0.2917910E-04
  0.4000000E+01 -0.1382259E-04  0.3122522E-04  0.3611242E+05  0.1522901E+05 -0.5190844E-03  0.1934693E-03  0.1183699E+05 -0.5955392E+04 -0.9223085E-04  0.1774431E-03 -0.2913160E-03 -0.2708640E-03
  0.4100000E+01 -0.1382259E-04  0.5322094E-04  0.3611242E+05  0.1416958E+05 -0.5190844E-03  0.1947691E-03  0.1183699E+05 -0.6405044E+04 -0.9223085E-04  0.1751581E-03 -0.2913160E-03 -0.5473669E-03
  0.4200000E+01 -0.1382259E-04  0.7740003E-04  0.3611242E+05  0.1220658E+05 -0.5190844E-03  0.1846960E-03  0.1183699E+05 -0.6958774E+04 -0.9223085E-04  0.1652284E-03 -0.2913160E-03 -0.7750170E-03
  0.4300000E+01 -0.1382259E-04  0.1013744E-03  0.3611242E+05  0.9477735E+04 -0.5190844E-03  0.1626883E-03  0.1183699E+05 -0.7549977E+04 -0.9223085E-04  0.1478601E-03 -0.2913160E-03 -0.9340938E-03
  0.4400000E+01 -0.1382259E-04  0.1228584E-03  0.3611242E+05  0.6293335E+04 -0.5190844E-03  0.1289021E-03  0.1183699E+05 -0.8051281E+04 -0.9223085E-04  0.1232654E-03 -0.2913160E-03 -0.1012089E-02
  0.4500000E+01 -0.1382259E-04  0.1400564E-03  0.3611242E+05  0.3055338E+04 -0.5190844E-03  0.8429360E-04  0.1183699E+05 -0.8308209E+04 -0.9223085E-04  0.9167677E-04 -0.2913160E-03 -0.1004425E-02
  0.4600000E+01 -0.1382259E-04  0.1518802E-03  0.3611242E+05  0.1590744E+03 -0.5190844E-03  0.3066133E-04  0.1183699E+05 -0.8179836E+04 -0.9223085E-04  0.5346846E-04 -0.2913160E-03 -0.9143088E-03
  0.4700000E+01 -0.1382259E-04  0.1579491E-03  0.3611242E+05 -0.2098090E+04 -0.5190844E-03 -0.2936795E-04  0.1183699E+05 -0.7576744E+04 -0.9223085E-04  0.9357948E-05 -0.2913160E-03 -0.7518411E-03
  0.4800000E+01 -0.1382259E-04  0.1583917E-03  0.3611242E+05 -0.3579251E+04 -0.5190844E-03 -0.9242232E-04  0.1183699E+05 -0.6487028E+04 -0.9223085E-04 -0.3936665E-04 -0.2913160E-03 -0.5325967E-03
  0.4900000E+01 -0.1382259E-04  0.1535171E-03  0.3611242E+05 -0.4328042E+04 -0.5190844E-03 -0.1545476E-03  0.1183699E+05 -0.4984457E+04 -0.9223085E-04 -0.9066895E-04 -0.2913160E-03 -0.2758878E-03