VARIABLES="w (rad/s)"
"A   1   1" "B   1   1"
"A   1   2" "B   1   2"
"A   1   3" "B   1   3"
"A   1   4" "B   1   4"
"A   1   5" "B   1   5"
"A   1   6" "B   1   6"
Zone t="Motion of body    1 in DoF   1",I=    95,F=POINT
  0.3000000E+00  0.8627426E+05  0.7146364E+01  0.3035863E-03  0.1837034E-06 -0.5278015E+00 -0.2337826E-01 -0.2098083E-03  0.1653098E-06 -0.1620412E+05  0.5558249E+01 -0.1239777E-03 -0.1862645E-08
  0.3500000E+00  0.8733009E+05  0.1613503E+02 -0.2166203E-03  0.2677552E-07 -0.5468750E+00 -0.3201820E-01 -0.4632133E-04  0.3166497E-07 -0.1595938E+05  0.1231154E+02 -0.8446829E-04  0.2630986E-07
  0.4000000E+00  0.8782416E+05  0.3561584E+02 -0.1525879E-03 -0.2116431E-06 -0.3764153E+00 -0.2842952E-01 -0.2384186E-04 -0.3706664E-06 -0.1558271E+05  0.2666958E+02  0.9059906E-04 -0.5587935E-08
  0.4500000E+00  0.8929122E+05  0.7679536E+02 -0.8551280E-03 -0.1247972E-06 -0.1399909E+00 -0.1198068E-01 -0.3475613E-03 -0.4842877E-07 -0.1566004E+05  0.5596171E+02  0.8477105E-05 -0.1043081E-06
  0.5000000E+00  0.9003155E+05  0.1566881E+03  0.1144409E-04 -0.1572073E-05 -0.8206177E-01 -0.8293748E-02 -0.1182556E-03  0.6929040E-06 -0.1503535E+05  0.1114066E+03  0.1296997E-03  0.2980232E-06
  0.5500000E+00  0.9189605E+05  0.3042183E+03  0.7100538E-03  0.1583248E-05  0.1170765E+00  0.3216934E-01 -0.1362887E-02 -0.2369285E-05 -0.1510932E+05  0.2092718E+03 -0.1109730E-03 -0.7450581E-08
  0.6000000E+00  0.9367786E+05  0.5566743E+03  0.2590815E-03  0.4582107E-05  0.1429621E+00  0.5393553E-01  0.1398722E-03 -0.5096197E-05 -0.1473126E+05  0.3697876E+03  0.8106232E-04  0.7748604E-06
  0.6500000E+00  0.9513971E+05  0.9643790E+03 -0.6851783E-03  0.1188368E-04  0.9467492E-01  0.5679440E-01  0.3169133E-03  0.1060963E-04 -0.1413309E+05  0.6191883E+03  0.1760629E-04  0.1668930E-05
  0.7000000E+00  0.9773539E+05  0.1602840E+04 -0.4468645E-03 -0.7346272E-05 -0.3105600E+00 -0.1042490E+00 -0.4141672E-03  0.1478195E-04 -0.1428458E+05  0.9838476E+03 -0.1035418E-03  0.1758337E-05
  0.7500000E+00  0.1003038E+06  0.2560857E+04  0.9625753E-03 -0.8046627E-06 -0.3831380E+00 -0.1952152E+00 -0.7120768E-04 -0.1525879E-04 -0.1371122E+05  0.1502159E+04  0.2543131E-04 -0.2443790E-05
  0.8000000E+00  0.1023791E+06  0.3951447E+04  0.5519390E-03 -0.2369285E-04  0.1759720E+00  0.4102325E-01  0.1955032E-03  0.3623962E-04 -0.1330535E+05  0.2208098E+04  0.2861023E-04  0.2384186E-05
  0.8500000E+00  0.1055165E+06  0.5916774E+04 -0.3803477E-03  0.4887581E-04  0.2073221E+00  0.1552505E+00  0.7405001E-03  0.9799004E-04 -0.1341224E+05  0.3137800E+04  0.9200152E-04 -0.1311302E-05
  0.9000000E+00  0.1087980E+06  0.8623706E+04  0.1409319E-03 -0.1972318E-03  0.2343241E+00  0.2260895E+00  0.1148648E-02 -0.1187325E-03 -0.1384710E+05  0.4286343E+04  0.1568264E-03 -0.5960464E-05
  0.9500000E+00  0.1117543E+06  0.1225142E+05 -0.9707401E-03 -0.1833439E-03  0.4568642E+00  0.4453926E+00  0.4135935E-03 -0.1811981E-04 -0.1365798E+05  0.5704748E+04  0.3212377E-04  0.9536743E-06
  0.9999999E+00  0.1140753E+06  0.1697981E+05  0.7572175E-03 -0.7331371E-04  0.6055146E+00  0.8222427E+00  0.7820131E-03  0.6771088E-04 -0.1380860E+05  0.7364813E+04  0.1335144E-04 -0.1430511E-05
  0.1050000E+01  0.1165873E+06  0.2294402E+05 -0.6539481E-03  0.2632141E-03  0.5155146E+00  0.8212051E+00 -0.1834688E-02 -0.5149841E-04 -0.1530482E+05  0.9186777E+04  0.7992699E-04 -0.8583069E-05
  0.1100000E+01  0.1186229E+06  0.3028539E+05 -0.1386296E-02  0.2255440E-03  0.2079218E+00  0.3186417E+00  0.2600930E-03 -0.4901886E-03 -0.1621908E+05  0.1118146E+05 -0.3814697E-04  0.1907349E-04
  0.1150000E+01  0.1197125E+06  0.3909093E+05 -0.1978667E-02  0.3457069E-03  0.8502463E-01  0.1869049E+00 -0.4046896E-03 -0.6275177E-03 -0.1777519E+05  0.1307092E+05 -0.1326851E-03 -0.2765656E-04
  0.1200000E+01  0.1200041E+06  0.4920807E+05 -0.1977285E-02 -0.7934570E-03  0.1210785E+00  0.2957382E+00 -0.1853307E-02  0.1848221E-02 -0.2025081E+05  0.1473857E+05 -0.5086263E-04  0.2861023E-04
  0.1250000E+01  0.1190602E+06  0.6048454E+05  0.2182007E-02 -0.4553795E-03  0.9831543E-01  0.2396240E+00 -0.9460449E-04 -0.2250671E-03 -0.2240234E+05  0.1613006E+05 -0.3662110E-04 -0.5722046E-05
  0.1300000E+01  0.1168894E+06  0.7264659E+05 -0.1013829E-02 -0.1254082E-02  0.8678730E-01  0.2662506E+00  0.7952177E-03  0.3051758E-04 -0.2486614E+05  0.1691818E+05  0.1173753E-03 -0.1506805E-03
  0.1350000E+01  0.1134419E+06  0.8518506E+05 -0.8632519E-03 -0.1360893E-02  0.6406431E-01  0.2517090E+00 -0.1780192E-03 -0.1068115E-02 -0.2769866E+05  0.1694178E+05 -0.7629395E-04 -0.9346008E-04
  0.1400000E+01  0.1087353E+06  0.9775807E+05 -0.2970014E-03  0.2489090E-03  0.4526411E-01  0.1450043E+00  0.2288818E-03 -0.5722046E-03 -0.3080608E+05  0.1568634E+05 -0.1716614E-03  0.1564026E-03
  0.1450000E+01  0.1029768E+06  0.1096769E+06 -0.8813266E-04 -0.8802414E-03  0.1737397E-01  0.2147675E+00  0.3262224E-03  0.1342773E-02 -0.3289260E+05  0.1428403E+05 -0.2288818E-03  0.5722046E-04
  0.1500000E+01  0.9650465E+05  0.1206910E+06  0.2911886E-03  0.1572609E-02 -0.1088460E-02  0.2054138E+00  0.9969076E-03 -0.4043579E-03 -0.3491544E+05  0.1181566E+05 -0.1093547E-03  0.2288818E-04
  0.1550000E+01  0.8944857E+05  0.1304500E+06  0.3445533E-03  0.1347542E-02 -0.1493393E-01  0.1080627E+00 -0.1452046E-03 -0.2521515E-02 -0.3666932E+05  0.8383384E+04 -0.9106052E-04 -0.1907349E-04
  0.1600000E+01  0.8220966E+05  0.1388035E+06 -0.1856685E-02 -0.1773834E-03  0.2776146E-01 -0.8392334E-02  0.1020432E-02 -0.1617432E-02 -0.3825421E+05  0.3836541E+04 -0.7152557E-05  0.1525879E-03
  0.1650000E+01  0.7490960E+05  0.1454852E+06 -0.2560471E-03  0.1697540E-02 -0.3347686E-02  0.2990723E-01 -0.3768459E-03  0.6484985E-04 -0.3880095E+05 -0.4284388E+03 -0.1364043E-03  0.1182556E-03
  0.1700000E+01  0.6791575E+05  0.1506622E+06  0.8555019E-03  0.1934052E-02 -0.1357135E-01  0.0000000E+00  0.1179190E-02 -0.6065369E-03 -0.3893855E+05 -0.4783102E+04 -0.1346364E-03  0.6484985E-04
  0.1750000E+01  0.6125475E+05  0.1544423E+06 -0.5057199E-03 -0.5874634E-03 -0.1171875E-01 -0.8392334E-02 -0.3716605E-03 -0.1739502E-02 -0.3882240E+05 -0.9684303E+04  0.1743862E-04  0.3814697E-05
  0.1800000E+01  0.5498096E+05  0.1568657E+06 -0.2553728E-03 -0.4463196E-03 -0.1030816E-01 -0.1501465E-01  0.9536743E-04  0.1861572E-02 -0.3827561E+05 -0.1473332E+05  0.3602770E-04 -0.1525879E-04
  0.1850000E+01  0.4922689E+05  0.1581903E+06 -0.8113964E-03  0.9574890E-03  0.1550623E-02  0.8972168E-02 -0.6938625E-03  0.9040833E-03 -0.3750719E+05 -0.2027632E+05  0.3402297E-04  0.0000000E+00
  0.1900000E+01  0.4400955E+05  0.1583873E+06 -0.5817413E-03  0.1018524E-02 -0.1754359E-01 -0.1818848E-01 -0.2158316E-04  0.5340576E-04 -0.3626512E+05 -0.2447404E+05 -0.2308896E-04 -0.2708435E-03
  0.1950000E+01  0.3937761E+05  0.1578573E+06 -0.2396412E-04 -0.1789093E-02  0.3280640E-02 -0.8666992E-02 -0.3085992E-03  0.3105164E-02 -0.3496585E+05 -0.2838802E+05  0.1760629E-04 -0.6484985E-04
  0.2000000E+01  0.3524636E+05  0.1566250E+06  0.3123283E-03 -0.1510620E-02 -0.2822876E-02  0.1081848E-01 -0.1454353E-03 -0.1888275E-02 -0.3353035E+05 -0.3220307E+05 -0.2384186E-04  0.1869202E-03
  0.2050000E+01  0.3154250E+05  0.1548171E+06 -0.3489052E-05 -0.1623154E-02 -0.9518135E-02  0.3924561E-01 -0.1700332E-03  0.7591248E-03 -0.3195116E+05 -0.3596597E+05  0.9025016E-04 -0.1411438E-03
  0.2100000E+01  0.2826185E+05  0.1525365E+06  0.2318337E-03 -0.3005981E-02 -0.1556760E-02 -0.7537842E-02  0.1376016E-03  0.1392365E-02 -0.3022184E+05 -0.3966309E+05  0.1998175E-04 -0.3051758E-04
  0.2150000E+01  0.2540139E+05  0.1498228E+06 -0.5810759E-04  0.9155273E-04 -0.2732476E-01  0.3153992E-01 -0.2153530E-03  0.1312256E-02 -0.2838282E+05 -0.4298808E+05  0.1685564E-04  0.2441406E-03
  0.2200000E+01  0.2293940E+05  0.1468945E+06  0.1140074E-03  0.1735687E-03  0.4069588E-02  0.1898193E-01  0.8669766E-06 -0.6141663E-03 -0.2681560E+05 -0.4510819E+05  0.1040372E-04  0.1335144E-03
  0.2250000E+01  0.2081492E+05  0.1437883E+06  0.1814101E-03 -0.9555817E-03  0.5905999E-02  0.1202393E-01  0.3793505E-04 -0.1853943E-02 -0.2524539E+05 -0.4717680E+05 -0.1313951E-04 -0.1182556E-03
  0.2300000E+01  0.1899623E+05  0.1405277E+06 -0.1298863E-03 -0.3185272E-03 -0.1967886E-02 -0.1058960E-01 -0.5245209E-04 -0.6523132E-03 -0.2369771E+05 -0.4900264E+05  0.3524449E-04  0.3051758E-04
  0.2350000E+01  0.1739419E+05  0.1371380E+06  0.5032154E-04  0.1169205E-02 -0.1029806E-01  0.3907776E-01  0.1663857E-04  0.9918213E-03 -0.2207508E+05 -0.5068057E+05 -0.3652370E-05 -0.1640320E-03
  0.2400000E+01  0.1601649E+05  0.1336067E+06  0.9526809E-04  0.3299713E-03 -0.1058578E-01 -0.3419495E-01 -0.2147754E-03  0.5416870E-03 -0.2046518E+05 -0.5193785E+05  0.7152557E-05  0.1754761E-03
  0.2450000E+01  0.1488230E+05  0.1300560E+06  0.2594383E-03 -0.1335144E-03 -0.7613824E-02 -0.4878235E-01  0.6228077E-05  0.7820129E-04 -0.1893958E+05 -0.5280150E+05 -0.1829498E-04 -0.1602173E-03
  0.2500000E+01  0.1392864E+05  0.1264635E+06 -0.1278877E-03 -0.1308441E-02 -0.1274261E-01 -0.6723022E-01  0.1411438E-04  0.8392334E-03 -0.1756975E+05 -0.5324668E+05  0.4386902E-05  0.1640320E-03
  0.2550000E+01  0.1312790E+05  0.1229946E+06 -0.9186128E-04  0.2155304E-03 -0.1036550E-01 -0.9977722E-01  0.2610450E-03  0.3345490E-02 -0.1634464E+05 -0.5380564E+05  0.8321276E-05 -0.1907349E-04
  0.2600000E+01  0.1248350E+05  0.1195675E+06 -0.3408927E-04  0.5149841E-03 -0.2316695E-02 -0.9172821E-01 -0.9169946E-05  0.7743835E-03 -0.1507991E+05 -0.5408858E+05  0.1072884E-04  0.2021790E-03
  0.2650000E+01  0.1196970E+05  0.1162676E+06 -0.1647562E-03 -0.6675720E-04 -0.2219722E-02 -0.1690445E+00 -0.1522280E-03 -0.2307892E-03 -0.1383442E+05 -0.5409771E+05  0.1012154E-05 -0.3242493E-03
  0.2700000E+01  0.1152033E+05  0.1131774E+06  0.7174633E-05  0.7076263E-03 -0.5460668E-02 -0.2420578E+00  0.1426979E-03  0.4501343E-03 -0.1253335E+05 -0.5358330E+05  0.7858983E-05  0.9155273E-04
  0.2750000E+01  0.1104273E+05  0.1110202E+06  0.7672743E-04  0.1543045E-02 -0.1428777E-02 -0.2461853E+00 -0.2538508E-03 -0.2002716E-03 -0.1096838E+05 -0.5292188E+05  0.1547553E-04 -0.1144409E-04
  0.2800000E+01 -0.1222249E+05  0.1929820E+06  0.4972730E-04 -0.7476807E-03  0.1737213E+00 -0.2851891E+01  0.2288818E-03 -0.1214027E-02  0.1490915E+05  0.2435283E+05 -0.1089914E-04 -0.3051758E-04
  0.2850000E+01  0.1129873E+05  0.9923369E+05 -0.9089186E-04 -0.1451492E-02 -0.3587154E-02  0.1166763E+00 -0.8231716E-04 -0.8687973E-03 -0.1066335E+05 -0.5389423E+05  0.1045696E-04  0.1106262E-03
  0.2900000E+01  0.1111328E+05  0.9705308E+05 -0.3679045E-04  0.7820129E-04 -0.1311203E-01  0.3898621E-02  0.1598227E-03 -0.8964539E-03 -0.9605251E+04 -0.5175650E+05 -0.4521732E-05 -0.5722046E-04
  0.2950000E+01  0.1107209E+05  0.9428053E+05 -0.3576279E-04 -0.2670288E-04 -0.9931144E-02  0.2187729E-01  0.5883686E-04  0.4711151E-03 -0.9020833E+04 -0.5054523E+05 -0.8728544E-05 -0.5722046E-04
  0.3000000E+01  0.1111462E+05  0.9138742E+05 -0.7649263E-04 -0.4177094E-03 -0.6459554E-03  0.1649475E-01 -0.2174377E-03 -0.3814697E-05 -0.8410536E+04 -0.4968418E+05  0.3178914E-05 -0.2670288E-04
  0.3050000E+01  0.1122799E+05  0.8854783E+05  0.2525673E-03 -0.7266998E-03 -0.8004610E-02  0.3353119E-02  0.1675965E-03  0.6141663E-03 -0.7844779E+04 -0.4868465E+05 -0.2673415E-04  0.6103516E-04
  0.3100000E+01  0.1137000E+05  0.8570727E+05 -0.1541261E-03 -0.2079010E-03 -0.4823746E-02  0.5565643E-02 -0.1292075E-03 -0.6771088E-04 -0.7343699E+04 -0.4777668E+05  0.1507421E-04 -0.2288818E-04
  0.3150000E+01  0.1154505E+05  0.8280029E+05  0.8855547E-04 -0.1472473E-02  0.6636362E-03  0.9853363E-02 -0.2234323E-03 -0.2985001E-03 -0.6863208E+04 -0.4636343E+05  0.5449567E-05  0.7629395E-05
  0.3200000E+01  0.1174886E+05  0.8000394E+05 -0.1192093E-05  0.5359650E-03 -0.2118826E-01  0.1003647E-01  0.8940697E-05 -0.4434586E-04 -0.6439414E+04 -0.4490798E+05  0.9089708E-05 -0.9918213E-04
  0.3250000E+01  0.1197779E+05  0.7742646E+05 -0.1023366E-03 -0.1710892E-02 -0.1685744E-01 -0.1721764E-01 -0.4695012E-05  0.2174377E-03 -0.6051928E+04 -0.4374356E+05  0.7335956E-05  0.1831055E-03
  0.3300000E+01  0.1223912E+05  0.7492004E+05 -0.1215935E-03  0.3814697E-04  0.2982400E-02 -0.3543854E-02 -0.1271566E-04  0.4577637E-04 -0.5731269E+04 -0.4227251E+05 -0.5779845E-06 -0.1182556E-03
  0.3350000E+01  0.1249932E+05  0.7236599E+05 -0.5359080E-04  0.5550385E-03 -0.2839501E-01  0.2939224E-02  0.7060037E-04 -0.4625320E-04 -0.5477190E+04 -0.4060475E+05  0.7686331E-05  0.1525879E-04
  0.3400000E+01  0.1275962E+05  0.6995650E+05  0.9698026E-04 -0.1144409E-04 -0.1847660E-01  0.8924484E-02  0.2255159E-03  0.7009506E-04 -0.5267959E+04 -0.3915250E+05 -0.5329356E-05 -0.8392334E-04
  0.3450000E+01  0.1304709E+05  0.6765728E+05 -0.7263128E-04 -0.2670288E-04  0.2262281E-01 -0.2616882E-02  0.2078734E-03  0.3237724E-03 -0.5109129E+04 -0.3779552E+05  0.7739965E-05 -0.1602173E-03
  0.3500000E+01  0.1333502E+05  0.6549015E+05  0.1752036E-03 -0.5798340E-03  0.3199986E-01  0.1901627E-02 -0.2561297E-03  0.2524853E-03 -0.5003268E+04 -0.3651299E+05  0.4904611E-05  0.1220703E-03
  0.3550000E+01  0.1354985E+05  0.6339143E+05 -0.1363351E-03 -0.5722046E-05  0.4134917E-02 -0.1089096E-02  0.3223688E-04  0.8964539E-04 -0.4818895E+04 -0.3530656E+05  0.3492328E-05 -0.7629395E-04
  0.3600000E+01  0.1369028E+05  0.6131907E+05  0.7682377E-04 -0.7867813E-03  0.7396274E-02  0.3500938E-02 -0.1144409E-03 -0.1285076E-03 -0.4596096E+04 -0.3392993E+05 -0.8212196E-05  0.3433228E-04
  0.3650000E+01  0.1355315E+05  0.5937559E+05  0.2482166E-04  0.2384186E-03  0.1822694E-01  0.8773804E-04  0.1254147E-04  0.1668930E-03 -0.4249919E+04 -0.3228485E+05 -0.1384787E-04  0.3051758E-04
  0.3700000E+01  0.1040007E+05  0.5510027E+05  0.9588293E-04 -0.2765656E-03  0.2959380E-01  0.3316975E-01  0.2567188E-03  0.3021359E-03 -0.2314906E+04 -0.2672539E+05 -0.5670496E-05  0.8010864E-04
  0.3750000E+01  0.1699030E+05  0.5228718E+05  0.1993815E-03 -0.3137589E-03  0.2052816E-01  0.1113892E-01  0.8036296E-04  0.4267693E-04 -0.5961006E+04 -0.3057482E+05  0.4069011E-05 -0.1831055E-03
  0.3800000E+01  0.1636039E+05  0.5210918E+05  0.5646756E-05  0.4301071E-03  0.3003974E-01  0.7500648E-02 -0.4316631E-03 -0.2701283E-03 -0.5304846E+04 -0.2942433E+05 -0.2308896E-04  0.7629395E-05
  0.3850000E+01  0.1643387E+05  0.5048023E+05 -0.8948438E-04 -0.3633499E-03  0.2634024E-01  0.8261681E-02  0.2328452E-03 -0.6656647E-03 -0.5140036E+04 -0.2791078E+05 -0.2006432E-04 -0.3433228E-04
  0.3900000E+01  0.1665487E+05  0.4873557E+05  0.1281347E-03  0.4854202E-03  0.2102583E-01  0.9822845E-03 -0.1750848E-03 -0.9465218E-04 -0.5079659E+04 -0.2649282E+05 -0.1956255E-05  0.3814697E-04
  0.3950000E+01  0.1694203E+05  0.4712206E+05  0.1014033E-03 -0.8392334E-04  0.1595799E-01  0.2136707E-02 -0.1448619E-04 -0.8416176E-04 -0.5068476E+04 -0.2529921E+05 -0.1859061E-04  0.5722046E-04
  0.4000000E+01  0.1726332E+05  0.4560146E+05 -0.2839565E-03 -0.1907349E-05  0.1778412E-01  0.3258228E-02 -0.7724762E-04 -0.5781651E-05 -0.5073112E+04 -0.2412182E+05 -0.3123283E-04  0.1296997E-03
  0.4050000E+01  0.1759509E+05  0.4420558E+05 -0.1298645E-03 -0.6752014E-03  0.3907380E-01  0.1987219E-02 -0.4059591E-03 -0.1331568E-03 -0.5123241E+04 -0.2297997E+05  0.2354751E-05  0.4196167E-04
  0.4100000E+01  0.1790059E+05  0.4285809E+05 -0.1153713E-03  0.2069473E-03  0.5244930E-01  0.6329298E-02  0.8466767E-04  0.1111031E-03 -0.5179209E+04 -0.2201231E+05  0.5349880E-05 -0.9918213E-04
  0.4150000E+01  0.1818772E+05  0.4156303E+05  0.9157571E-04  0.3223419E-03  0.2155717E-01  0.2112389E-02  0.4228339E-04 -0.1485944E-03 -0.5243033E+04 -0.2107494E+05 -0.1424766E-04  0.0000000E+00
  0.4200000E+01  0.1847652E+05  0.4021137E+05  0.1544044E-04 -0.2708435E-03  0.3087362E-01  0.5014896E-02  0.1580375E-03 -0.2849698E-03 -0.5347648E+04 -0.1994063E+05  0.1907349E-04 -0.1907349E-04
  0.4250000E+01  0.1872297E+05  0.3889505E+05 -0.3515131E-03 -0.4768372E-05  0.2014160E-01  0.3056288E-02  0.7090849E-04 -0.1615882E-03 -0.5443712E+04 -0.1890558E+05  0.2243940E-06  0.0000000E+00
  0.4300000E+01  0.1890517E+05  0.3761338E+05 -0.4435694E-04 -0.3728867E-03  0.2252623E-01 -0.8244514E-03 -0.1064567E-03  0.1269579E-03 -0.5485299E+04 -0.1798481E+05  0.2217847E-06  0.1907349E-04
  0.4350000E+01  0.1899651E+05  0.3625160E+05  0.1288008E-03  0.8583069E-04  0.4069712E-01 -0.2015591E-02  0.3121913E-03  0.3185868E-04 -0.5490462E+04 -0.1697478E+05  0.3288532E-05 -0.6484985E-04
  0.4400000E+01  0.1886415E+05  0.3447274E+05 -0.4659999E-04  0.3700256E-03  0.3501198E-01  0.9417534E-05  0.1109730E-03 -0.1317263E-04 -0.5421974E+04 -0.1553982E+05 -0.1777302E-04 -0.3623962E-04
  0.4450000E+01  0.1731807E+05  0.2692856E+05 -0.3066760E-03 -0.9536743E-04  0.4142161E-01 -0.2747774E-02  0.9686760E-04 -0.2029538E-04 -0.4943356E+04 -0.9655660E+04  0.1285853E-05 -0.7629395E-05
  0.4500000E+01  0.2243875E+05  0.3111155E+05  0.4434586E-04 -0.5149841E-04  0.3988986E-01 -0.6523848E-02  0.7010566E-03  0.9667873E-04 -0.7169592E+04 -0.1633518E+05 -0.1313951E-04  0.3051758E-04
  0.4550000E+01  0.2147670E+05  0.3166429E+05  0.2624700E-03  0.4386902E-03  0.3353580E-01 -0.2290606E-02 -0.4527333E-04 -0.6034970E-04 -0.6561251E+04 -0.1516531E+05 -0.3772777E-05  0.6675720E-04
  0.4600000E+01  0.2144443E+05  0.3066853E+05  0.3318683E-03 -0.2059937E-03  0.4300325E-01  0.7402897E-03  0.5149841E-03  0.1220107E-03 -0.6478686E+04 -0.1425654E+05 -0.2321990E-04  0.4196167E-04
  0.4650000E+01  0.2159146E+05  0.2972778E+05  0.1703796E-03  0.1497269E-03  0.5087575E-01 -0.5373508E-03 -0.9434197E-04  0.8629821E-04 -0.6496707E+04 -0.1345160E+05  0.1640730E-04 -0.6866455E-04
  0.4700000E+01  0.2179423E+05  0.2883711E+05  0.2685506E-03  0.1392365E-03  0.3736131E-01  0.6582141E-03  0.2369982E-03  0.1700968E-04 -0.6560535E+04 -0.1275515E+05 -0.1379784E-04  0.2098083E-04
  0.4750000E+01  0.2201613E+05  0.2792299E+05 -0.2245652E-03 -0.1430511E-04  0.4062371E-01 -0.3099442E-04 -0.2184416E-03  0.4596822E-04 -0.6648403E+04 -0.1204183E+05 -0.4196167E-04 -0.2098083E-04
  0.4800000E+01  0.2222520E+05  0.2712953E+05 -0.2965331E-03  0.4959106E-04  0.3943125E-01 -0.1662955E-02  0.4275640E-03  0.1039077E-03 -0.6742204E+04 -0.1141999E+05 -0.1271566E-04 -0.1907349E-04
  0.4850000E+01  0.2243445E+05  0.2627818E+05 -0.5291418E-03 -0.1754761E-03  0.4332238E-01  0.1536697E-02 -0.3586602E-03 -0.4470348E-05 -0.6860182E+04 -0.1071610E+05  0.3873687E-04 -0.2288818E-04
  0.4900000E+01  0.2260666E+05  0.2543995E+05  0.1539503E-03 -0.1077652E-03  0.3743074E-01  0.7897615E-04 -0.3114039E-04  0.6899238E-05 -0.6967934E+04 -0.1008195E+05  0.1693258E-04 -0.5912781E-04
  0.4950000E+01  0.2271869E+05  0.2453494E+05  0.8303710E-04  0.4673004E-04  0.4218208E-01  0.2082407E-02  0.9864268E-04  0.2039969E-04 -0.7036919E+04 -0.9475691E+04  0.1984413E-04 -0.7629395E-05
  0.5000000E+01  0.2273947E+05  0.2335734E+05 -0.8583069E-04 -0.2079010E-03  0.4053345E-01  0.3135175E-02  0.3570557E-03 -0.5308539E-04 -0.7058333E+04 -0.8699434E+04 -0.4558563E-04  0.4386902E-04
Zone t="Motion of body    1 in DoF   2",I=    95,F=POINT
  0.3000000E+00  0.8662542E-03  0.2200250E-07  0.8627377E+05  0.7146394E+01  0.2764066E-02 -0.7097842E-06  0.1620454E+05 -0.5558409E+01 -0.7629394E-03  0.8847564E-07 -0.7645289E-03 -0.2647503E-06
  0.3500000E+00 -0.1430511E-03 -0.5587935E-07  0.8732977E+05  0.1613442E+02 -0.7769040E-02 -0.3646826E-05  0.1595964E+05 -0.1231190E+02 -0.6566729E-03  0.2309680E-06 -0.3571170E-03  0.5753827E-07
  0.4000000E+00 -0.7820129E-03  0.2956949E-06  0.8782376E+05  0.3561585E+02  0.6335974E-03  0.6472692E-07  0.1558303E+05 -0.2666821E+02 -0.4053116E-04  0.5383044E-06 -0.1145899E-02 -0.5079783E-06
  0.4500000E+00 -0.5478329E-03  0.6062910E-06  0.8929078E+05  0.7679485E+02  0.3290176E-02  0.2868474E-05  0.1566031E+05 -0.5596088E+02  0.1284281E-02  0.2171844E-05 -0.3353755E-03 -0.1030741E-05
  0.5000000E+00  0.6132126E-03  0.1762062E-05  0.9003131E+05  0.1566877E+03 -0.2861500E-02 -0.7601455E-05  0.1503542E+05 -0.1114068E+03  0.8430481E-03  0.2458692E-05 -0.8776188E-03 -0.2691522E-06
  0.5500000E+00 -0.2965060E-03  0.1188368E-05  0.9189577E+05  0.3042181E+03 -0.3082969E-02 -0.4436448E-04  0.1510922E+05 -0.2092726E+03 -0.7872148E-03 -0.2071261E-05 -0.8994883E-03 -0.7348601E-05
  0.6000000E+00  0.4196167E-03 -0.8419156E-06  0.9367783E+05  0.5566740E+03  0.2044837E-02 -0.3287196E-04  0.1473103E+05 -0.3697858E+03 -0.5563100E-03 -0.1162291E-05 -0.8163849E-03  0.2917834E-05
  0.6500000E+00  0.2288819E-03 -0.3233552E-05  0.9513966E+05  0.9643790E+03 -0.3683384E-02  0.5650520E-04  0.1413263E+05 -0.6191871E+03 -0.1748892E-02  0.2115965E-04 -0.5553319E-03 -0.2862886E-05
  0.7000000E+00 -0.3405980E-04  0.1683831E-05  0.9773505E+05  0.1602835E+04 -0.2826963E-02  0.7055700E-04  0.1428405E+05 -0.9838438E+03 -0.7847378E-03 -0.2098083E-04 -0.1243864E-02 -0.1737103E-04
  0.7500000E+00 -0.2721151E-03  0.1239777E-04  0.1003032E+06  0.2560849E+04 -0.4334132E-02 -0.1507699E-03  0.1371073E+05 -0.1502162E+04  0.1558940E-02  0.1657009E-04 -0.1242797E-02 -0.3799796E-04
  0.8000000E+00  0.1080036E-02 -0.4720688E-04  0.1023784E+06  0.3951426E+04 -0.8994341E-03  0.3150702E-03  0.1330485E+05 -0.2208097E+04 -0.6675720E-04 -0.9536743E-04 -0.1323372E-02 -0.2740324E-04
  0.8500000E+00 -0.8134281E-03 -0.4529953E-04  0.1055157E+06  0.5916739E+04 -0.5650240E-02 -0.1447201E-03  0.1341211E+05 -0.3137779E+04 -0.2122767E-02 -0.8583069E-05 -0.1510452E-02 -0.6365031E-04
  0.9000000E+00 -0.4132589E-04  0.1343489E-03  0.1087975E+06  0.8623675E+04 -0.5470912E-02 -0.4887581E-03  0.1384696E+05 -0.4286323E+04 -0.2500746E-03 -0.4768372E-06 -0.1071824E-02 -0.1064539E-03
  0.9500000E+00 -0.1146417E-02 -0.5781651E-04  0.1117539E+06  0.1225139E+05 -0.6315332E-02  0.4686117E-03  0.1365764E+05 -0.5704764E+04 -0.8914346E-03  0.1182556E-03 -0.1649355E-02 -0.1402646E-03
  0.9999999E+00  0.1907349E-03  0.2560616E-03  0.1140748E+06  0.1697976E+05  0.1005650E-01  0.1544952E-03  0.1380814E+05 -0.7364833E+04 -0.9613038E-03 -0.1249313E-03 -0.1639843E-02 -0.3775656E-03
  0.1050000E+01  0.1318795E-02  0.1199246E-03  0.1165864E+06  0.2294387E+05 -0.8929117E-02  0.1919508E-02  0.1530474E+05 -0.9186708E+04 -0.1791091E-02 -0.4158020E-03 -0.2287456E-02 -0.9116530E-04
  0.1100000E+01  0.4855069E-04 -0.2121925E-03  0.1186220E+06  0.3028515E+05  0.5891973E-02 -0.1300573E-02  0.1621902E+05 -0.1118138E+05 -0.1317804E-02  0.5321503E-03 -0.2023307E-02 -0.4252195E-03
  0.1150000E+01 -0.8209892E-03 -0.6723404E-04  0.1197115E+06  0.3909062E+05 -0.2584043E-02 -0.1940727E-02  0.1777527E+05 -0.1307073E+05 -0.1383242E-02  0.8010864E-04 -0.1563404E-02 -0.6523728E-03
  0.1200000E+01 -0.9059906E-04 -0.1068115E-03  0.1200032E+06  0.4920764E+05  0.3956159E-02 -0.3385544E-04  0.2025102E+05 -0.1473834E+05 -0.1246134E-02 -0.1420975E-02 -0.1313488E-02 -0.4944801E-03
  0.1250000E+01  0.1582336E-02  0.1239777E-04  0.1190593E+06  0.6048401E+05  0.1838684E-03 -0.1099110E-02  0.2240257E+05 -0.1612982E+05  0.2990723E-03  0.3128052E-03 -0.1458168E-02 -0.6239414E-03
  0.1300000E+01 -0.3286508E-03  0.3337860E-04  0.1168885E+06  0.7264608E+05  0.3457436E-02 -0.2346039E-02  0.2486629E+05 -0.1691782E+05 -0.4783044E-03  0.9346008E-03 -0.1685436E-02 -0.9585619E-03
  0.1350000E+01  0.1681292E-03  0.6465912E-03  0.1134412E+06  0.8518455E+05 -0.4151662E-02  0.3333092E-02  0.2769877E+05 -0.1694155E+05 -0.7601138E-03 -0.1003265E-02 -0.6495581E-03 -0.1650810E-02
  0.1400000E+01  0.3405980E-04  0.1525879E-04  0.1087347E+06  0.9775743E+05 -0.9448187E-02 -0.2985954E-02  0.3080624E+05 -0.1568598E+05 -0.2724784E-05 -0.1682281E-02 -0.1575947E-02 -0.2989769E-03
  0.1450000E+01  0.2091506E-03 -0.4005432E-04  0.1029763E+06  0.1096764E+06 -0.1016814E-02  0.7100105E-02  0.3289277E+05 -0.1428367E+05  0.2867600E-03  0.1071930E-02 -0.4408277E-03 -0.1158714E-03
  0.1500000E+01 -0.1308441E-02  0.6275177E-03  0.9650443E+05  0.1206907E+06  0.1817068E-02  0.3621101E-02  0.3491536E+05 -0.1181543E+05  0.1118978E-03  0.9956360E-03  0.2861023E-05  0.8869171E-04
  0.1550000E+01 -0.8416945E-03  0.1396179E-02  0.8944827E+05  0.1304496E+06 -0.1952264E-02 -0.3224373E-02  0.3666941E+05 -0.8383207E+04 -0.1575101E-03  0.1049042E-02 -0.1343450E-02 -0.1560688E-02
  0.1600000E+01 -0.2729893E-03 -0.1525879E-04  0.8220934E+05  0.1388029E+06 -0.1987219E-02 -0.6633759E-02  0.3825420E+05 -0.3835944E+04  0.1001358E-03 -0.2593994E-03 -0.6942451E-03 -0.1598835E-02
  0.1650000E+01 -0.6542784E-03  0.1752853E-02  0.7490931E+05  0.1454848E+06 -0.2250094E-02 -0.8107185E-02  0.3880104E+05  0.4285373E+03  0.5155621E-03  0.0000000E+00 -0.6802877E-03 -0.1480103E-02
  0.1700000E+01  0.6787917E-03 -0.1035690E-02  0.6791562E+05  0.1506621E+06 -0.6093418E-02  0.5101204E-02  0.3893847E+05  0.4783408E+04  0.4083970E-03  0.1148224E-02 -0.1229819E-02 -0.1585484E-02
  0.1750000E+01 -0.6223406E-03  0.3337860E-03  0.6125471E+05  0.1544422E+06  0.6119864E-03  0.1086807E-01  0.3882235E+05  0.9684461E+04  0.1202175E-02  0.3204346E-03 -0.8114406E-03 -0.7336140E-03
  0.1800000E+01  0.3920661E-03  0.3204346E-03  0.5498080E+05  0.1568656E+06  0.7073085E-04 -0.4348755E-02  0.3827567E+05  0.1473363E+05 -0.5573697E-03 -0.3395081E-03 -0.6523397E-03 -0.5214214E-03
  0.1850000E+01  0.1061929E-03 -0.1710892E-02  0.4922688E+05  0.1581900E+06  0.1091828E-02 -0.1160622E-02  0.3750722E+05  0.2027635E+05 -0.1195959E-03  0.6561279E-03 -0.3993189E-03 -0.1097202E-02
  0.1900000E+01  0.1239777E-03  0.1222610E-02  0.4400952E+05  0.1583873E+06  0.1186823E-02 -0.1420975E-03  0.3626505E+05  0.2447446E+05  0.1576072E-03  0.4386902E-03 -0.4037430E-03 -0.2953529E-02
  0.1950000E+01  0.2391522E-03 -0.5416870E-03  0.3937759E+05  0.1578573E+06 -0.5237873E-03  0.1390457E-02  0.3496586E+05  0.2838821E+05  0.8314084E-05  0.1998901E-02 -0.4640603E-03 -0.1315594E-02
  0.2000000E+01 -0.2312660E-03  0.1296997E-02  0.3524638E+05  0.1566248E+06 -0.1358986E-03  0.1369476E-02  0.3353032E+05  0.3220304E+05 -0.1935959E-03 -0.2296448E-02 -0.1693368E-03 -0.1683474E-02
  0.2050000E+01  0.3130843E-03 -0.9193420E-03  0.3154249E+05  0.1548173E+06 -0.1224657E-03  0.1585960E-02  0.3195116E+05  0.3596606E+05  0.3868196E-03  0.4463196E-03 -0.2967439E-03 -0.1944542E-02
  0.2100000E+01  0.5540394E-04  0.1182556E-03  0.2826185E+05  0.1525364E+06  0.3598985E-04 -0.5887032E-02  0.3022186E+05  0.3966311E+05 -0.2352397E-03 -0.3814697E-04 -0.1639412E-03 -0.2305984E-02
  0.2150000E+01  0.5943830E-04 -0.8468628E-03  0.2540137E+05  0.1498229E+06 -0.6320864E-05 -0.1626968E-02  0.2838281E+05  0.4298843E+05  0.5134316E-03 -0.1827240E-02 -0.3299602E-03 -0.1180887E-02
  0.2200000E+01  0.6155534E-04 -0.1316071E-02  0.2293938E+05  0.1468944E+06  0.4470348E-04 -0.2997398E-02  0.2681556E+05  0.4510835E+05  0.8994882E-04  0.1308441E-02 -0.1219186E-03 -0.2437830E-02
  0.2250000E+01  0.1271566E-04  0.1205444E-02  0.2081494E+05  0.1437883E+06 -0.3343158E-04  0.4783630E-02  0.2524538E+05  0.4717705E+05 -0.1500448E-03 -0.2071381E-02 -0.3256268E-03 -0.7486343E-03
  0.2300000E+01  0.3234200E-03  0.5493164E-03  0.1899623E+05  0.1405276E+06 -0.8780023E-04  0.2012730E-02  0.2369765E+05  0.4900275E+05 -0.3690305E-03  0.1415253E-02 -0.2270160E-03 -0.1950741E-02
  0.2350000E+01 -0.1846476E-04 -0.8277893E-03  0.1739418E+05  0.1371378E+06 -0.4803881E-04 -0.2294064E-02  0.2207504E+05  0.5068081E+05 -0.9942562E-05  0.1499176E-02 -0.1514846E-03 -0.1361847E-02
  0.2400000E+01  0.1717607E-03 -0.2975464E-03  0.1601651E+05  0.1336067E+06 -0.5662441E-05 -0.9469986E-03  0.2046514E+05  0.5193791E+05  0.1078844E-03 -0.1010895E-03 -0.1427531E-03 -0.1925230E-02
  0.2450000E+01 -0.3649264E-04  0.2861023E-03  0.1488230E+05  0.1300559E+06  0.9454026E-04 -0.2389431E-02  0.1893960E+05  0.5280175E+05 -0.2024125E-03  0.9403229E-03 -0.1351444E-03 -0.7233620E-03
  0.2500000E+01  0.3271103E-04  0.1050949E-02  0.1392861E+05  0.1264635E+06  0.6542206E-04  0.6566048E-03  0.1756974E+05  0.5324681E+05 -0.1672745E-03 -0.2639771E-02 -0.1457453E-03 -0.1942396E-02
  0.2550000E+01  0.9101980E-04  0.2164841E-02  0.1312790E+05  0.1229946E+06 -0.2917121E-04 -0.2181530E-02  0.1634460E+05  0.5380573E+05  0.3852096E-04  0.6866455E-04 -0.1797664E-03 -0.1337767E-02
  0.2600000E+01  0.2170985E-04  0.2288818E-03  0.1248351E+05  0.1195675E+06 -0.8289631E-04  0.1655579E-02  0.1507995E+05  0.5408884E+05 -0.8619749E-04 -0.2956390E-03 -0.3100301E-03 -0.6284714E-03
  0.2650000E+01  0.7142436E-04 -0.1232147E-02  0.1196971E+05  0.1162676E+06  0.5735541E-04 -0.3032684E-02  0.1383440E+05  0.5409790E+05 -0.2270824E-03 -0.6351471E-03 -0.3011806E-03 -0.4382133E-03
  0.2700000E+01 -0.2211995E-04  0.8258820E-03  0.1152031E+05  0.1131773E+06 -0.2136054E-03 -0.2874374E-02  0.1253333E+05  0.5358355E+05  0.1158538E-03 -0.1945496E-03 -0.1185967E-03 -0.6852150E-03
  0.2750000E+01  0.1075484E-03  0.8716583E-03  0.1104272E+05  0.1110201E+06  0.3464439E-03 -0.4164457E-02  0.1096845E+05  0.5292160E+05 -0.5375255E-04 -0.1754761E-03 -0.2296513E-03 -0.8733273E-03
  0.2800000E+01  0.1798357E-03 -0.1449585E-03 -0.1222586E+05  0.1929825E+06  0.6253379E-03  0.8221865E-02 -0.1490977E+05 -0.2435724E+05  0.4373278E-03  0.7200241E-03  0.7784537E-02 -0.3605080E-01
  0.2850000E+01  0.2543132E-04  0.9384155E-03  0.1129874E+05  0.9923364E+05  0.5688584E-05  0.3465414E-02  0.1066328E+05  0.5389388E+05  0.2372474E-03  0.1140594E-02 -0.9201598E-04  0.1036167E-02
  0.2900000E+01 -0.4858806E-04 -0.7553101E-03  0.1111328E+05  0.9705302E+05 -0.7664746E-03 -0.1359940E-02  0.9605231E+04  0.5175626E+05  0.9339431E-04  0.4558563E-03 -0.3305488E-03 -0.1818657E-02
  0.2950000E+01 -0.7241459E-04  0.9746552E-03  0.1107207E+05  0.9428048E+05 -0.7074970E-03 -0.2458572E-02  0.9020837E+04  0.5054527E+05  0.6148774E-03  0.4568100E-03 -0.2309730E-03 -0.1652002E-02
  0.3000000E+01 -0.1054605E-03 -0.7820129E-03  0.1111461E+05  0.9138736E+05  0.2431870E-04  0.8547306E-03  0.8410554E+04  0.4968399E+05  0.2174377E-03  0.1043320E-02 -0.2650519E-03 -0.8554459E-03